<?xml version="1.0"?>
<VTKFile type="UnstructuredGrid"  version="0.1"  >
<UnstructuredGrid>
<Piece  NumberOfPoints="441" NumberOfCells="800">
<Points>
<DataArray  type="Float64"  NumberOfComponents="3"  format="ascii">0 0 0  0.05 0 0  0.1 0 0  0.15 0 0  0.2 0 0  0.25 0 0  0.3 0 0  0.35 0 0  0.4 0 0  0.45 0 0  0.5 0 0  0.55 0 0  0.6 0 0  0.65 0 0  0.7 0 0  0.75 0 0  0.8 0 0  0.85 0 0  0.9 0 0  0.95 0 0  1 0 0  0 0.05 0  0.05 0.05 0  0.1 0.05 0  0.15 0.05 0  0.2 0.05 0  0.25 0.05 0  0.3 0.05 0  0.35 0.05 0  0.4 0.05 0  0.45 0.05 0  0.5 0.05 0  0.55 0.05 0  0.6 0.05 0  0.65 0.05 0  0.7 0.05 0  0.75 0.05 0  0.8 0.05 0  0.85 0.05 0  0.9 0.05 0  0.95 0.05 0  1 0.05 0  0 0.1 0  0.05 0.1 0  0.1 0.1 0  0.15 0.1 0  0.2 0.1 0  0.25 0.1 0  0.3 0.1 0  0.35 0.1 0  0.4 0.1 0  0.45 0.1 0  0.5 0.1 0  0.55 0.1 0  0.6 0.1 0  0.65 0.1 0  0.7 0.1 0  0.75 0.1 0  0.8 0.1 0  0.85 0.1 0  0.9 0.1 0  0.95 0.1 0  1 0.1 0  0 0.15 0  0.05 0.15 0  0.1 0.15 0  0.15 0.15 0  0.2 0.15 0  0.25 0.15 0  0.3 0.15 0  0.35 0.15 0  0.4 0.15 0  0.45 0.15 0  0.5 0.15 0  0.55 0.15 0  0.6 0.15 0  0.65 0.15 0  0.7 0.15 0  0.75 0.15 0  0.8 0.15 0  0.85 0.15 0  0.9 0.15 0  0.95 0.15 0  1 0.15 0  0 0.2 0  0.05 0.2 0  0.1 0.2 0  0.15 0.2 0  0.2 0.2 0  0.25 0.2 0  0.3 0.2 0  0.35 0.2 0  0.4 0.2 0  0.45 0.2 0  0.5 0.2 0  0.55 0.2 0  0.6 0.2 0  0.65 0.2 0  0.7 0.2 0  0.75 0.2 0  0.8 0.2 0  0.85 0.2 0  0.9 0.2 0  0.95 0.2 0  1 0.2 0  0 0.25 0  0.05 0.25 0  0.1 0.25 0  0.15 0.25 0  0.2 0.25 0  0.25 0.25 0  0.3 0.25 0  0.35 0.25 0  0.4 0.25 0  0.45 0.25 0  0.5 0.25 0  0.55 0.25 0  0.6 0.25 0  0.65 0.25 0  0.7 0.25 0  0.75 0.25 0  0.8 0.25 0  0.85 0.25 0  0.9 0.25 0  0.95 0.25 0  1 0.25 0  0 0.3 0  0.05 0.3 0  0.1 0.3 0  0.15 0.3 0  0.2 0.3 0  0.25 0.3 0  0.3 0.3 0  0.35 0.3 0  0.4 0.3 0  0.45 0.3 0  0.5 0.3 0  0.55 0.3 0  0.6 0.3 0  0.65 0.3 0  0.7 0.3 0  0.75 0.3 0  0.8 0.3 0  0.85 0.3 0  0.9 0.3 0  0.95 0.3 0  1 0.3 0  0 0.35 0  0.05 0.35 0  0.1 0.35 0  0.15 0.35 0  0.2 0.35 0  0.25 0.35 0  0.3 0.35 0  0.35 0.35 0  0.4 0.35 0  0.45 0.35 0  0.5 0.35 0  0.55 0.35 0  0.6 0.35 0  0.65 0.35 0  0.7 0.35 0  0.75 0.35 0  0.8 0.35 0  0.85 0.35 0  0.9 0.35 0  0.95 0.35 0  1 0.35 0  0 0.4 0  0.05 0.4 0  0.1 0.4 0  0.15 0.4 0  0.2 0.4 0  0.25 0.4 0  0.3 0.4 0  0.35 0.4 0  0.4 0.4 0  0.45 0.4 0  0.5 0.4 0  0.55 0.4 0  0.6 0.4 0  0.65 0.4 0  0.7 0.4 0  0.75 0.4 0  0.8 0.4 0  0.85 0.4 0  0.9 0.4 0  0.95 0.4 0  1 0.4 0  0 0.45 0  0.05 0.45 0  0.1 0.45 0  0.15 0.45 0  0.2 0.45 0  0.25 0.45 0  0.3 0.45 0  0.35 0.45 0  0.4 0.45 0  0.45 0.45 0  0.5 0.45 0  0.55 0.45 0  0.6 0.45 0  0.65 0.45 0  0.7 0.45 0  0.75 0.45 0  0.8 0.45 0  0.85 0.45 0  0.9 0.45 0  0.95 0.45 0  1 0.45 0  0 0.5 0  0.05 0.5 0  0.1 0.5 0  0.15 0.5 0  0.2 0.5 0  0.25 0.5 0  0.3 0.5 0  0.35 0.5 0  0.4 0.5 0  0.45 0.5 0  0.5 0.5 0  0.55 0.5 0  0.6 0.5 0  0.65 0.5 0  0.7 0.5 0  0.75 0.5 0  0.8 0.5 0  0.85 0.5 0  0.9 0.5 0  0.95 0.5 0  1 0.5 0  0 0.55 0  0.05 0.55 0  0.1 0.55 0  0.15 0.55 0  0.2 0.55 0  0.25 0.55 0  0.3 0.55 0  0.35 0.55 0  0.4 0.55 0  0.45 0.55 0  0.5 0.55 0  0.55 0.55 0  0.6 0.55 0  0.65 0.55 0  0.7 0.55 0  0.75 0.55 0  0.8 0.55 0  0.85 0.55 0  0.9 0.55 0  0.95 0.55 0  1 0.55 0  0 0.6 0  0.05 0.6 0  0.1 0.6 0  0.15 0.6 0  0.2 0.6 0  0.25 0.6 0  0.3 0.6 0  0.35 0.6 0  0.4 0.6 0  0.45 0.6 0  0.5 0.6 0  0.55 0.6 0  0.6 0.6 0  0.65 0.6 0  0.7 0.6 0  0.75 0.6 0  0.8 0.6 0  0.85 0.6 0  0.9 0.6 0  0.95 0.6 0  1 0.6 0  0 0.65 0  0.05 0.65 0  0.1 0.65 0  0.15 0.65 0  0.2 0.65 0  0.25 0.65 0  0.3 0.65 0  0.35 0.65 0  0.4 0.65 0  0.45 0.65 0  0.5 0.65 0  0.55 0.65 0  0.6 0.65 0  0.65 0.65 0  0.7 0.65 0  0.75 0.65 0  0.8 0.65 0  0.85 0.65 0  0.9 0.65 0  0.95 0.65 0  1 0.65 0  0 0.7 0  0.05 0.7 0  0.1 0.7 0  0.15 0.7 0  0.2 0.7 0  0.25 0.7 0  0.3 0.7 0  0.35 0.7 0  0.4 0.7 0  0.45 0.7 0  0.5 0.7 0  0.55 0.7 0  0.6 0.7 0  0.65 0.7 0  0.7 0.7 0  0.75 0.7 0  0.8 0.7 0  0.85 0.7 0  0.9 0.7 0  0.95 0.7 0  1 0.7 0  0 0.75 0  0.05 0.75 0  0.1 0.75 0  0.15 0.75 0  0.2 0.75 0  0.25 0.75 0  0.3 0.75 0  0.35 0.75 0  0.4 0.75 0  0.45 0.75 0  0.5 0.75 0  0.55 0.75 0  0.6 0.75 0  0.65 0.75 0  0.7 0.75 0  0.75 0.75 0  0.8 0.75 0  0.85 0.75 0  0.9 0.75 0  0.95 0.75 0  1 0.75 0  0 0.8 0  0.05 0.8 0  0.1 0.8 0  0.15 0.8 0  0.2 0.8 0  0.25 0.8 0  0.3 0.8 0  0.35 0.8 0  0.4 0.8 0  0.45 0.8 0  0.5 0.8 0  0.55 0.8 0  0.6 0.8 0  0.65 0.8 0  0.7 0.8 0  0.75 0.8 0  0.8 0.8 0  0.85 0.8 0  0.9 0.8 0  0.95 0.8 0  1 0.8 0  0 0.85 0  0.05 0.85 0  0.1 0.85 0  0.15 0.85 0  0.2 0.85 0  0.25 0.85 0  0.3 0.85 0  0.35 0.85 0  0.4 0.85 0  0.45 0.85 0  0.5 0.85 0  0.55 0.85 0  0.6 0.85 0  0.65 0.85 0  0.7 0.85 0  0.75 0.85 0  0.8 0.85 0  0.85 0.85 0  0.9 0.85 0  0.95 0.85 0  1 0.85 0  0 0.9 0  0.05 0.9 0  0.1 0.9 0  0.15 0.9 0  0.2 0.9 0  0.25 0.9 0  0.3 0.9 0  0.35 0.9 0  0.4 0.9 0  0.45 0.9 0  0.5 0.9 0  0.55 0.9 0  0.6 0.9 0  0.65 0.9 0  0.7 0.9 0  0.75 0.9 0  0.8 0.9 0  0.85 0.9 0  0.9 0.9 0  0.95 0.9 0  1 0.9 0  0 0.95 0  0.05 0.95 0  0.1 0.95 0  0.15 0.95 0  0.2 0.95 0  0.25 0.95 0  0.3 0.95 0  0.35 0.95 0  0.4 0.95 0  0.45 0.95 0  0.5 0.95 0  0.55 0.95 0  0.6 0.95 0  0.65 0.95 0  0.7 0.95 0  0.75 0.95 0  0.8 0.95 0  0.85 0.95 0  0.9 0.95 0  0.95 0.95 0  1 0.95 0  0 1 0  0.05 1 0  0.1 1 0  0.15 1 0  0.2 1 0  0.25 1 0  0.3 1 0  0.35 1 0  0.4 1 0  0.45 1 0  0.5 1 0  0.55 1 0  0.6 1 0  0.65 1 0  0.7 1 0  0.75 1 0  0.8 1 0  0.85 1 0  0.9 1 0  0.95 1 0  1 1 0  </DataArray>
</Points>
<Cells>
[...]
<PointData  Scalars="f_11"> 
<DataArray  type="Float64"  Name="f_11"  format="ascii">9.9999999793883998e-01  9.9999998477001428e-01  9.9999988746483148e-01  9.9999916847196602e-01  9.9999385582539135e-01  9.9995460213129117e-01  9.9966464986952719e-01  9.9752737684335913e-01  9.8201379003790235e-01  8.8079707797787787e-01  4.9999999999999872e-01  1.1920292202211710e-01  1.7986209962091524e-02  2.4726231566347648e-03  3.3535013046648250e-04  4.5397868702445819e-05  6.1441746022072778e-06  8.3152802765606886e-07  1.1253516207787567e-07  1.5229979499764541e-08  2.0611536366565758e-09  9.9999999793883987e-01  1.2344706109927608e+00  9.7586144423859222e-01  1.2321851706314813e+00  9.6025932407859149e-01  1.2299352690389407e+00  9.3955100527959845e-01  1.2316653176453973e+00  9.1466993797552054e-01  1.1166882935178613e+00  5.0073755630367789e-01  1.8623286141131429e-01  4.1432081132642774e-02  9.6096466892692106e-02  2.4502953902419019e-02  8.8158984449416944e-02  1.8631962865393738e-02  8.4302235016210800e-02  1.0591020921164864e-02  8.4436214744359500e-02  2.0611536366565820e-09  9.9999999793883987e-01  9.7897572523136700e-01  9.9337665041485190e-01  9.9030799266111147e-01  9.8879059042018014e-01  9.8817544657733269e-01  9.9724059729340975e-01  9.8632830063221943e-01  9.6674256274191550e-01  9.3274212599373252e-01  4.6174495449593578e-01  9.4710378006544416e-02  5.6835933234656438e-03  -1.6598146806435356e-03  -8.1970761837364351e-03  -3.6526391388250396e-03  -6.4142339828710589e-03  -5.5688010710132994e-03  -2.6652736183298462e-03  -8.4632572608058215e-03  2.0611536366565758e-09  9.9999999793883987e-01  1.2155832002634401e+00  9.8675795444922676e-01  1.2141803257268475e+00  9.5937418547575448e-01  1.2281801064477929e+00  9.3414302842134622e-01  1.2156023275369228e+00  9.3769906524154301e-01  1.0782387284361059e+00  5.0448233341782123e-01  1.9109586356237662e-01  3.9925495463080302e-02  9.3237615732760182e-02  2.0776600842836845e-02  8.6606556031018092e-02  1.4227166464771745e-02  8.3565315233062432e-02  6.6180543083483589e-03  8.2272362985977857e-02  2.0611536366565754e-09  9.9999999793883987e-01  9.8307337300801312e-01  9.9953543191944760e-01  9.8037401715173822e-01  1.0081114811842711e+00  9.7744347142669752e-01  9.9738991796354537e-01  1.0068335399099584e+00  9.4157468143266887e-01  9.5506097392780043e-01  4.5910548460559053e-01  9.5624693474403263e-02  4.1372189715659421e-03  1.1126998012573521e-03  -8.2526029128472088e-03  -1.0000918362316599e-03  -6.5599553704408717e-03  -3.6954751482609722e-03  -1.9513029330993699e-03  -6.9802536780827268e-03  2.0611536366565758e-09  9.9999999793883987e-01  1.2096576283411438e+00  9.8724184094680179e-01  1.2123978656759378e+00  9.6119862541103940e-01  1.2129078007475032e+00  9.5903250611406143e-01  1.1818052299206181e+00  9.6347828410159253e-01  1.0635517335956606e+00  5.0432127690644390e-01  1.9220845257273325e-01  3.7518336902626369e-02  9.3590869574806987e-02  1.9262746224557818e-02  8.6283395617052366e-02  1.1720339066328141e-02  8.5540238185647849e-02  3.0781781126763765e-03  8.2752417169806788e-02  2.0611536366565771e-09  9.9999999793883987e-01  1.0011325901445078e+00  1.0125272498392275e+00  9.8250413626756894e-01  1.0235188538412718e+00  9.8979961156132246e-01  9.9483216387099216e-01  1.0277431570436588e+00  9.4307512923072967e-01  9.6128305897323485e-01  4.7090468013785203e-01  1.0024410804819224e-01  9.3887251522393831e-03  1.0322268452370970e-02  -5.4348307503140521e-03  5.9136630366722559e-03  -6.0595719689833267e-04  4.7946102216856758e-04  1.8822112950839826e-03  1.1092036226533313e-03  2.0611536366565762e-09  9.9999999793883987e-01  1.2175854221718805e+00  9.7239891055390815e-01  1.2208460769244511e+00  9.6575980565337005e-01  1.1911652610748875e+00  9.8829061159083798e-01  1.1530925521948294e+00  9.8268608052164841e-01  1.0516721594048821e+00  5.1089983686303497e-01  1.8579263114383102e-01  4.1833789826434473e-02  9.1099083963005117e-02  1.7453716979663473e-02  9.0086516212075418e-02  6.8759139348980513e-03  8.7333821190015939e-02  3.7126467414447567e-03  8.0276173912014859e-02  2.0611536366565758e-09  9.9999999793883987e-01  9.9342003530644718e-01  1.0152953731943304e+00  9.9008096378749655e-01  1.0021068031154499e+00  1.0146164337304351e+00  9.7490591475537502e-01  1.0336492862223852e+00  9.4798067105694350e-01  9.4967257190766574e-01  4.8081767983418339e-01  9.2615452024675637e-02  1.3825420801789985e-02  5.6141847799956223e-03  -1.8737569304105273e-03  3.1935835646205958e-03  -1.8983360537568486e-03  4.3661096551469688e-03  -3.7824277262010664e-03  4.1138244742322441e-03  2.0611536366565771e-09  9.9999999793883987e-01  1.2421597781955644e+00  9.8350665872777820e-01  1.2235612643107099e+00  9.9230220200159946e-01  1.1885921973936313e+00  1.0064016825778985e+00  1.1594457321775675e+00  9.9632267994968537e-01  1.0517237130546038e+00  5.3266629895583806e-01  1.7986780996104160e-01  6.0323327760589317e-02  9.2221331561444478e-02  2.7320400135474748e-02  9.4691701271981496e-02  1.5545429261717314e-02  9.1311959895340938e-02  9.2271800447910005e-03  8.8975249750465293e-02  2.0611536366565762e-09  9.9999999793883987e-01  9.9819656934390888e-01  1.0020106375259354e+00  1.0077007216223741e+00  9.8249129861066153e-01  1.0310078791196040e+00  9.6105219833056099e-01  1.0438441960376172e+00  9.3984451118786394e-01  9.5278982470380680e-01  4.8332542528199252e-01  8.2662880584066137e-02  2.7695627111524686e-02  -9.2244546587421927e-03  8.9090308348604031e-03  -2.9686870574203430e-03  -4.4266043063440530e-04  4.2012090615689167e-03  -3.8273255677480889e-03  3.1050219309303171e-03  2.0611536366565758e-09  9.9999999793883987e-01  1.2499367522568321e+00  9.9187636058958306e-01  1.2201284545729156e+00  1.0074642292271039e+00  1.1834926837117463e+00  1.0165466956782709e+00  1.1620069737906280e+00  9.9752159958520192e-01  1.0599468512666224e+00  5.3232065360502712e-01  1.8312342612568133e-01  6.8935994308562662e-02  8.4397193191030340e-02  4.3937735685826082e-02  8.3704003992663742e-02  2.8676453492026674e-02  8.7752583044576449e-02  1.3027575571651368e-02  9.2541645257346608e-02  2.0611536366565771e-09  9.9999999793883987e-01  9.9889990760818714e-01  9.8022977415025614e-01  1.0253525666624888e+00  9.5570072042799059e-01  1.0431412978202497e+00  9.4746196819540018e-01  1.0439919408716281e+00  9.3341650875636084e-01  9.5302305194874981e-01  4.7448033646165616e-01  8.4170044321013368e-02  2.3309559237925853e-02  -1.6263784079005285e-02  1.5156097264408171e-02  -1.7724128781188661e-02  9.6256888527982334e-03  -9.6000187015964494e-03  2.9082726883094033e-03  -5.0601770956261796e-03  2.0611536366565758e-09  9.9999999793883987e-01  1.2150021762264249e+00  9.9379649478828014e-01  1.1906523301994276e+00  9.9919672379225410e-01  1.1711628521150141e+00  9.9779274794152084e-01  1.1542480370629447e+00  9.8372159030885087e-01  1.0488219928693290e+00  5.1971041849494370e-01  1.7806220424613250e-01  5.1938882450011728e-02  8.0166226483037381e-02  3.6167008872658224e-02  6.6925732215177378e-02  3.3816299392338448e-02  6.6420174744921748e-02  1.6898404191319129e-02  7.7590448689312932e-02  2.0611536366565775e-09  9.9999999793883987e-01  9.6849605834803087e-01  9.5192464234797536e-01  1.0115174255180697e+00  9.2851695128730927e-01  1.0296382790886944e+00  9.1992527015937353e-01  1.0372459020102338e+00  9.0618773976824263e-01  9.4273880175445568e-01  4.5830075821822014e-01  6.8255349740787022e-02  8.2729629522329852e-03  -2.3653165556299288e-02  -5.7850535444936829e-03  -2.4454627503744598e-02  1.2494436271071484e-03  -3.2608203706496912e-02  9.7790508073836539e-03  -3.0520795876063097e-02  2.0611536366565758e-09  9.9999999793883987e-01  1.1030501588490913e+00  9.8260936579013369e-01  1.1177523578506283e+00  9.6234545906885161e-01  1.1203353040599180e+00  9.5790955039400882e-01  1.1146752218623943e+00  9.3772110317811452e-01  1.0227888870027049e+00  4.7394959636165518e-01  1.5055464482980130e-01  1.9699416496893229e-02  4.7816308587028879e-02  6.9380789315591808e-03  4.4992073549311742e-02  -4.7769936600585799e-04  4.6411853400019687e-02  -2.2588907476656758e-03  4.0166947162494887e-02  2.0611536366565758e-09  9.9999999793883987e-01  9.2784095475062522e-01  9.8214118704264564e-01  9.6959100325640457e-01  9.3746278700102537e-01  1.0175137129476934e+00  9.1126314987982104e-01  1.0297796853814838e+00  8.9946036571775878e-01  9.3906437546389654e-01  4.4476945057837758e-01  7.2660662777575893e-02  -7.4674447331137999e-03  -2.3101106757249214e-02  -1.1814499864038402e-02  -3.1000741726058156e-02  -3.5242759465088942e-03  -3.2890142058048709e-02  -7.5189207294744387e-04  -3.1109524738189055e-02  2.0611536366565771e-09  9.9999999793883987e-01  1.0835117800441472e+00  1.0222295228729124e+00  1.0602088819547291e+00  1.0165517553388692e+00  1.0812639862807492e+00  9.7264245072404953e-01  1.1128804750730592e+00  9.3534190049183752e-01  1.0227413976110087e+00  4.7048877155042662e-01  1.5445728443795204e-01  1.1770359383085835e-02  5.6048881091847226e-02  -2.0458629904151989e-03  4.9782077689149176e-02  -3.0195625220064450e-03  4.6066607019384198e-02  -3.5519450934893716e-03  4.1222922916193450e-02  2.0611536366565758e-09  9.9999999793883987e-01  9.7045219039205588e-01  9.8791423549713786e-01  9.7643222755946513e-01  9.9231106921281886e-01  9.7923999686254026e-01  9.7654803433268844e-01  1.0151148641382033e+00  9.1808834588327004e-01  9.5339286264660228e-01  4.5793407555186233e-01  8.7924097912482374e-02  -1.7999382384368079e-03  -5.3635171069304740e-03  -9.2007429242071809e-03  -1.4245603750366133e-02  2.3455665509230014e-04  -2.0484166884264986e-02  4.4973550439217158e-03  -1.8415780204137800e-02  2.0611536366565775e-09  9.9999999793883998e-01  1.0685339622937320e+00  1.0098796277527731e+00  1.0580001266602481e+00  1.0114454091048839e+00  1.0482331769986173e+00  1.0141631573589971e+00  1.0461486432463700e+00  9.7881152721922815e-01  1.0054724075307795e+00  4.5963444067951043e-01  1.4307551172291164e-01  5.6846815432910116e-03  5.5439476839309922e-02  -1.5239577696116367e-02  5.4740076168946369e-02  -1.6480817017504628e-02  4.7585059236917249e-02  -9.1235308734114277e-03  3.4945899079281653e-02  2.0611536366565758e-09  9.9999999793884187e-01  9.9999998477001761e-01  9.9999988746483348e-01  9.9999916847196801e-01  9.9999385582539335e-01  9.9995460213129295e-01  9.9966464986952885e-01  9.9752737684336090e-01  9.8201379003790368e-01  8.8079707797787832e-01  4.9999999999999806e-01  1.1920292202211681e-01  1.7986209962091489e-02  2.4726231566347670e-03  3.3535013046648190e-04  4.5397868702445758e-05  6.1441746022072575e-06  8.3152802765606759e-07  1.1253516207787577e-07  1.5229979499764521e-08  2.0611536366564757e-09  </DataArray> 
</PointData> 
</Piece>
</UnstructuredGrid>
</VTKFile>