<?xml version="1.0"?>
<VTKFile type="UnstructuredGrid"  version="0.1"  >
<UnstructuredGrid>
<Piece  NumberOfPoints="1681" NumberOfCells="3200">
<Points>
<DataArray  type="Float64"  NumberOfComponents="3"  format="ascii">0 0 0  0.025 0 0  0.05 0 0  0.075 0 0  0.1 0 0  0.125 0 0  0.15 0 0  0.175 0 0  0.2 0 0  0.225 0 0  0.25 0 0  0.275 0 0  0.3 0 0  0.325 0 0  0.35 0 0  0.375 0 0  0.4 0 0  0.425 0 0  0.45 0 0  0.475 0 0  0.5 0 0  0.525 0 0  0.55 0 0  0.575 0 0  0.6 0 0  0.625 0 0  0.65 0 0  0.675 0 0  0.7 0 0  0.725 0 0  0.75 0 0  0.775 0 0  0.8 0 0  0.825 0 0  0.85 0 0  0.875 0 0  0.9 0 0  0.925 0 0  0.95 0 0  0.975 0 0  1 0 0  0 0.025 0  0.025 0.025 0  0.05 0.025 0  0.075 0.025 0  0.1 0.025 0  0.125 0.025 0  0.15 0.025 0  0.175 0.025 0  0.2 0.025 0  0.225 0.025 0  0.25 0.025 0  0.275 0.025 0  0.3 0.025 0  0.325 0.025 0  0.35 0.025 0  0.375 0.025 0  0.4 0.025 0  0.425 0.025 0  0.45 0.025 0  0.475 0.025 0  0.5 0.025 0  0.525 0.025 0  0.55 0.025 0  0.575 0.025 0  0.6 0.025 0  0.625 0.025 0  0.65 0.025 0  0.675 0.025 0  0.7 0.025 0  0.725 0.025 0  0.75 0.025 0  0.775 0.025 0  0.8 0.025 0  0.825 0.025 0  0.85 0.025 0  0.875 0.025 0  0.9 0.025 0  0.925 0.025 0  0.95 0.025 0  0.975 0.025 0  1 0.025 0  0 0.05 0  0.025 0.05 0  0.05 0.05 0  0.075 0.05 0  0.1 0.05 0  0.125 0.05 0  0.15 0.05 0  0.175 0.05 0  0.2 0.05 0  0.225 0.05 0  0.25 0.05 0  0.275 0.05 0  0.3 0.05 0  0.325 0.05 0  0.35 0.05 0  0.375 0.05 0  0.4 0.05 0  0.425 0.05 0  0.45 0.05 0  0.475 0.05 0  0.5 0.05 0  0.525 0.05 0  0.55 0.05 0  0.575 0.05 0  0.6 0.05 0  0.625 0.05 0  0.65 0.05 0  0.675 0.05 0  0.7 0.05 0  0.725 0.05 0  0.75 0.05 0  0.775 0.05 0  0.8 0.05 0  0.825 0.05 0  0.85 0.05 0  0.875 0.05 0  0.9 0.05 0  0.925 0.05 0  0.95 0.05 0  0.975 0.05 0  1 0.05 0  0 0.075 0  0.025 0.075 0  0.05 0.075 0  0.075 0.075 0  0.1 0.075 0  0.125 0.075 0  0.15 0.075 0  0.175 0.075 0  0.2 0.075 0  0.225 0.075 0  0.25 0.075 0  0.275 0.075 0  0.3 0.075 0  0.325 0.075 0  0.35 0.075 0  0.375 0.075 0  0.4 0.075 0  0.425 0.075 0  0.45 0.075 0  0.475 0.075 0  0.5 0.075 0  0.525 0.075 0  0.55 0.075 0  0.575 0.075 0  0.6 0.075 0  0.625 0.075 0  0.65 0.075 0  0.675 0.075 0  0.7 0.075 0  0.725 0.075 0  0.75 0.075 0  0.775 0.075 0  0.8 0.075 0  0.825 0.075 0  0.85 0.075 0  0.875 0.075 0  0.9 0.075 0  0.925 0.075 0  0.95 0.075 0  0.975 0.075 0  1 0.075 0  0 0.1 0  0.025 0.1 0  0.05 0.1 0  0.075 0.1 0  0.1 0.1 0  0.125 0.1 0  0.15 0.1 0  0.175 0.1 0  0.2 0.1 0  0.225 0.1 0  0.25 0.1 0  0.275 0.1 0  0.3 0.1 0  0.325 0.1 0  0.35 0.1 0  0.375 0.1 0  0.4 0.1 0  0.425 0.1 0  0.45 0.1 0  0.475 0.1 0  0.5 0.1 0  0.525 0.1 0  0.55 0.1 0  0.575 0.1 0  0.6 0.1 0  0.625 0.1 0  0.65 0.1 0  0.675 0.1 0  0.7 0.1 0  0.725 0.1 0  0.75 0.1 0  0.775 0.1 0  0.8 0.1 0  0.825 0.1 0  0.85 0.1 0  0.875 0.1 0  0.9 0.1 0  0.925 0.1 0  0.95 0.1 0  0.975 0.1 0  1 0.1 0  0 0.125 0  0.025 0.125 0  0.05 0.125 0  0.075 0.125 0  0.1 0.125 0  0.125 0.125 0  0.15 0.125 0  0.175 0.125 0  0.2 0.125 0  0.225 0.125 0  0.25 0.125 0  0.275 0.125 0  0.3 0.125 0  0.325 0.125 0  0.35 0.125 0  0.375 0.125 0  0.4 0.125 0  0.425 0.125 0  0.45 0.125 0  0.475 0.125 0  0.5 0.125 0  0.525 0.125 0  0.55 0.125 0  0.575 0.125 0  0.6 0.125 0  0.625 0.125 0  0.65 0.125 0  0.675 0.125 0  0.7 0.125 0  0.725 0.125 0  0.75 0.125 0  0.775 0.125 0  0.8 0.125 0  0.825 0.125 0  0.85 0.125 0  0.875 0.125 0  0.9 0.125 0  0.925 0.125 0  0.95 0.125 0  0.975 0.125 0  1 0.125 0  0 0.15 0  0.025 0.15 0  0.05 0.15 0  0.075 0.15 0  0.1 0.15 0  0.125 0.15 0  0.15 0.15 0  0.175 0.15 0  0.2 0.15 0  0.225 0.15 0  0.25 0.15 0  0.275 0.15 0  0.3 0.15 0  0.325 0.15 0  0.35 0.15 0  0.375 0.15 0  0.4 0.15 0  0.425 0.15 0  0.45 0.15 0  0.475 0.15 0  0.5 0.15 0  0.525 0.15 0  0.55 0.15 0  0.575 0.15 0  0.6 0.15 0  0.625 0.15 0  0.65 0.15 0  0.675 0.15 0  0.7 0.15 0  0.725 0.15 0  0.75 0.15 0  0.775 0.15 0  0.8 0.15 0  0.825 0.15 0  0.85 0.15 0  0.875 0.15 0  0.9 0.15 0  0.925 0.15 0  0.95 0.15 0  0.975 0.15 0  1 0.15 0  0 0.175 0  0.025 0.175 0  0.05 0.175 0  0.075 0.175 0  0.1 0.175 0  0.125 0.175 0  0.15 0.175 0  0.175 0.175 0  0.2 0.175 0  0.225 0.175 0  0.25 0.175 0  0.275 0.175 0  0.3 0.175 0  0.325 0.175 0  0.35 0.175 0  0.375 0.175 0  0.4 0.175 0  0.425 0.175 0  0.45 0.175 0  0.475 0.175 0  0.5 0.175 0  0.525 0.175 0  0.55 0.175 0  0.575 0.175 0  0.6 0.175 0  0.625 0.175 0  0.65 0.175 0  0.675 0.175 0  0.7 0.175 0  0.725 0.175 0  0.75 0.175 0  0.775 0.175 0  0.8 0.175 0  0.825 0.175 0  0.85 0.175 0  0.875 0.175 0  0.9 0.175 0  0.925 0.175 0  0.95 0.175 0  0.975 0.175 0  1 0.175 0  0 0.2 0  0.025 0.2 0  0.05 0.2 0  0.075 0.2 0  0.1 0.2 0  0.125 0.2 0  0.15 0.2 0  0.175 0.2 0  0.2 0.2 0  0.225 0.2 0  0.25 0.2 0  0.275 0.2 0  0.3 0.2 0  0.325 0.2 0  0.35 0.2 0  0.375 0.2 0  0.4 0.2 0  0.425 0.2 0  0.45 0.2 0  0.475 0.2 0  0.5 0.2 0  0.525 0.2 0  0.55 0.2 0  0.575 0.2 0  0.6 0.2 0  0.625 0.2 0  0.65 0.2 0  0.675 0.2 0  0.7 0.2 0  0.725 0.2 0  0.75 0.2 0  0.775 0.2 0  0.8 0.2 0  0.825 0.2 0  0.85 0.2 0  0.875 0.2 0  0.9 0.2 0  0.925 0.2 0  0.95 0.2 0  0.975 0.2 0  1 0.2 0  0 0.225 0  0.025 0.225 0  0.05 0.225 0  0.075 0.225 0  0.1 0.225 0  0.125 0.225 0  0.15 0.225 0  0.175 0.225 0  0.2 0.225 0  0.225 0.225 0  0.25 0.225 0  0.275 0.225 0  0.3 0.225 0  0.325 0.225 0  0.35 0.225 0  0.375 0.225 0  0.4 0.225 0  0.425 0.225 0  0.45 0.225 0  0.475 0.225 0  0.5 0.225 0  0.525 0.225 0  0.55 0.225 0  0.575 0.225 0  0.6 0.225 0  0.625 0.225 0  0.65 0.225 0  0.675 0.225 0  0.7 0.225 0  0.725 0.225 0  0.75 0.225 0  0.775 0.225 0  0.8 0.225 0  0.825 0.225 0  0.85 0.225 0  0.875 0.225 0  0.9 0.225 0  0.925 0.225 0  0.95 0.225 0  0.975 0.225 0  1 0.225 0  0 0.25 0  0.025 0.25 0  0.05 0.25 0  0.075 0.25 0  0.1 0.25 0  0.125 0.25 0  0.15 0.25 0  0.175 0.25 0  0.2 0.25 0  0.225 0.25 0  0.25 0.25 0  0.275 0.25 0  0.3 0.25 0  0.325 0.25 0  0.35 0.25 0  0.375 0.25 0  0.4 0.25 0  0.425 0.25 0  0.45 0.25 0  0.475 0.25 0  0.5 0.25 0  0.525 0.25 0  0.55 0.25 0  0.575 0.25 0  0.6 0.25 0  0.625 0.25 0  0.65 0.25 0  0.675 0.25 0  0.7 0.25 0  0.725 0.25 0  0.75 0.25 0  0.775 0.25 0  0.8 0.25 0  0.825 0.25 0  0.85 0.25 0  0.875 0.25 0  0.9 0.25 0  0.925 0.25 0  0.95 0.25 0  0.975 0.25 0  1 0.25 0  0 0.275 0  0.025 0.275 0  0.05 0.275 0  0.075 0.275 0  0.1 0.275 0  0.125 0.275 0  0.15 0.275 0  0.175 0.275 0  0.2 0.275 0  0.225 0.275 0  0.25 0.275 0  0.275 0.275 0  0.3 0.275 0  0.325 0.275 0  0.35 0.275 0  0.375 0.275 0  0.4 0.275 0  0.425 0.275 0  0.45 0.275 0  0.475 0.275 0  0.5 0.275 0  0.525 0.275 0  0.55 0.275 0  0.575 0.275 0  0.6 0.275 0  0.625 0.275 0  0.65 0.275 0  0.675 0.275 0  0.7 0.275 0  0.725 0.275 0  0.75 0.275 0  0.775 0.275 0  0.8 0.275 0  0.825 0.275 0  0.85 0.275 0  0.875 0.275 0  0.9 0.275 0  0.925 0.275 0  0.95 0.275 0  0.975 0.275 0  1 0.275 0  0 0.3 0  0.025 0.3 0  0.05 0.3 0  0.075 0.3 0  0.1 0.3 0  0.125 0.3 0  0.15 0.3 0  0.175 0.3 0  0.2 0.3 0  0.225 0.3 0  0.25 0.3 0  0.275 0.3 0  0.3 0.3 0  0.325 0.3 0  0.35 0.3 0  0.375 0.3 0  0.4 0.3 0  0.425 0.3 0  0.45 0.3 0  0.475 0.3 0  0.5 0.3 0  0.525 0.3 0  0.55 0.3 0  0.575 0.3 0  0.6 0.3 0  0.625 0.3 0  0.65 0.3 0  0.675 0.3 0  0.7 0.3 0  0.725 0.3 0  0.75 0.3 0  0.775 0.3 0  0.8 0.3 0  0.825 0.3 0  0.85 0.3 0  0.875 0.3 0  0.9 0.3 0  0.925 0.3 0  0.95 0.3 0  0.975 0.3 0  1 0.3 0  0 0.325 0  0.025 0.325 0  0.05 0.325 0  0.075 0.325 0  0.1 0.325 0  0.125 0.325 0  0.15 0.325 0  0.175 0.325 0  0.2 0.325 0  0.225 0.325 0  0.25 0.325 0  0.275 0.325 0  0.3 0.325 0  0.325 0.325 0  0.35 0.325 0  0.375 0.325 0  0.4 0.325 0  0.425 0.325 0  0.45 0.325 0  0.475 0.325 0  0.5 0.325 0  0.525 0.325 0  0.55 0.325 0  0.575 0.325 0  0.6 0.325 0  0.625 0.325 0  0.65 0.325 0  0.675 0.325 0  0.7 0.325 0  0.725 0.325 0  0.75 0.325 0  0.775 0.325 0  0.8 0.325 0  0.825 0.325 0  0.85 0.325 0  0.875 0.325 0  0.9 0.325 0  0.925 0.325 0  0.95 0.325 0  0.975 0.325 0  1 0.325 0  0 0.35 0  0.025 0.35 0  0.05 0.35 0  0.075 0.35 0  0.1 0.35 0  0.125 0.35 0  0.15 0.35 0  0.175 0.35 0  0.2 0.35 0  0.225 0.35 0  0.25 0.35 0  0.275 0.35 0  0.3 0.35 0  0.325 0.35 0  0.35 0.35 0  0.375 0.35 0  0.4 0.35 0  0.425 0.35 0  0.45 0.35 0  0.475 0.35 0  0.5 0.35 0  0.525 0.35 0  0.55 0.35 0  0.575 0.35 0  0.6 0.35 0  0.625 0.35 0  0.65 0.35 0  0.675 0.35 0  0.7 0.35 0  0.725 0.35 0  0.75 0.35 0  0.775 0.35 0  0.8 0.35 0  0.825 0.35 0  0.85 0.35 0  0.875 0.35 0  0.9 0.35 0  0.925 0.35 0  0.95 0.35 0  0.975 0.35 0  1 0.35 0  0 0.375 0  0.025 0.375 0  0.05 0.375 0  0.075 0.375 0  0.1 0.375 0  0.125 0.375 0  0.15 0.375 0  0.175 0.375 0  0.2 0.375 0  0.225 0.375 0  0.25 0.375 0  0.275 0.375 0  0.3 0.375 0  0.325 0.375 0  0.35 0.375 0  0.375 0.375 0  0.4 0.375 0  0.425 0.375 0  0.45 0.375 0  0.475 0.375 0  0.5 0.375 0  0.525 0.375 0  0.55 0.375 0  0.575 0.375 0  0.6 0.375 0  0.625 0.375 0  0.65 0.375 0  0.675 0.375 0  0.7 0.375 0  0.725 0.375 0  0.75 0.375 0  0.775 0.375 0  0.8 0.375 0  0.825 0.375 0  0.85 0.375 0  0.875 0.375 0  0.9 0.375 0  0.925 0.375 0  0.95 0.375 0  0.975 0.375 0  1 0.375 0  0 0.4 0  0.025 0.4 0  0.05 0.4 0  0.075 0.4 0  0.1 0.4 0  0.125 0.4 0  0.15 0.4 0  0.175 0.4 0  0.2 0.4 0  0.225 0.4 0  0.25 0.4 0  0.275 0.4 0  0.3 0.4 0  0.325 0.4 0  0.35 0.4 0  0.375 0.4 0  0.4 0.4 0  0.425 0.4 0  0.45 0.4 0  0.475 0.4 0  0.5 0.4 0  0.525 0.4 0  0.55 0.4 0  0.575 0.4 0  0.6 0.4 0  0.625 0.4 0  0.65 0.4 0  0.675 0.4 0  0.7 0.4 0  0.725 0.4 0  0.75 0.4 0  0.775 0.4 0  0.8 0.4 0  0.825 0.4 0  0.85 0.4 0  0.875 0.4 0  0.9 0.4 0  0.925 0.4 0  0.95 0.4 0  0.975 0.4 0  1 0.4 0  0 0.425 0  0.025 0.425 0  0.05 0.425 0  0.075 0.425 0  0.1 0.425 0  0.125 0.425 0  0.15 0.425 0  0.175 0.425 0  0.2 0.425 0  0.225 0.425 0  0.25 0.425 0  0.275 0.425 0  0.3 0.425 0  0.325 0.425 0  0.35 0.425 0  0.375 0.425 0  0.4 0.425 0  0.425 0.425 0  0.45 0.425 0  0.475 0.425 0  0.5 0.425 0  0.525 0.425 0  0.55 0.425 0  0.575 0.425 0  0.6 0.425 0  0.625 0.425 0  0.65 0.425 0  0.675 0.425 0  0.7 0.425 0  0.725 0.425 0  0.75 0.425 0  0.775 0.425 0  0.8 0.425 0  0.825 0.425 0  0.85 0.425 0  0.875 0.425 0  0.9 0.425 0  0.925 0.425 0  0.95 0.425 0  0.975 0.425 0  1 0.425 0  0 0.45 0  0.02
[...]
<PointData  Scalars="f_11"> 
<DataArray  type="Float64"  Name="f_11"  format="ascii">9.9999999793883998e-01  9.9999999439719711e-01  9.9999998477001417e-01  9.9999995860061819e-01  9.9999988746483159e-01  9.9999969409776690e-01  9.9999916847196590e-01  9.9999773967569561e-01  9.9999385582539158e-01  9.9998329857814550e-01  9.9995460213129117e-01  9.9987660542400758e-01  9.9966464986952730e-01  9.9908894880559296e-01  9.9752737684335890e-01  9.9330714907570872e-01  9.8201379003790246e-01  9.5257412682242726e-01  8.8079707797787710e-01  7.3105857863000134e-01  4.9999999999999767e-01  2.6894142136999394e-01  1.1920292202211692e-01  4.7425873177566677e-02  1.7986209962091496e-02  6.6928509242848190e-03  2.4726231566347596e-03  9.1105119440065537e-04  3.3535013046648185e-04  1.2339457598625715e-04  4.5397868702445724e-05  1.6701421848119789e-05  6.1441746022072643e-06  2.2603242978980113e-06  8.3152802765606696e-07  3.0590222693804757e-07  1.1253516207787547e-07  4.1399375483308479e-08  1.5229979499764518e-08  5.6027963935001225e-09  2.0611536366565841e-09  9.9999999793883987e-01  1.0035002449137194e+00  9.9983645841062641e-01  1.0035002843183443e+00  9.9963976945709609e-01  1.0035262310483961e+00  9.9953567118592823e-01  1.0033824103517284e+00  9.9953771323670604e-01  1.0033215114113214e+00  9.9926064999550168e-01  1.0033777198218499e+00  9.9883389238743525e-01  1.0024658429648128e+00  9.9706010103114973e-01  9.9703146161030054e-01  9.8248082773537959e-01  9.6002102127996813e-01  8.8709590167997654e-01  7.4581036840188919e-01  5.0202171019020958e-01  2.5930999968932533e-01  1.1063317133754762e-01  4.4459246338966342e-02  1.6685108965772591e-02  7.3881604393156693e-03  2.6666794128892383e-03  2.1910310002029665e-03  6.6099786862562485e-04  1.4797354642114039e-03  3.4071932042092196e-04  1.3408530271034737e-03  2.8546517591291091e-04  1.2531967807709464e-03  2.8533261963341772e-04  1.1812799512210114e-03  2.4705926053882353e-04  1.1962037636730890e-03  1.1902521338750948e-04  1.2687723227037281e-03  2.0611536366565874e-09  9.9999999793883987e-01  9.9981254914086548e-01  9.9988292688541724e-01  9.9981133693516555e-01  9.9995145609102232e-01  9.9984066826229279e-01  9.9979738401856344e-01  1.0000306272464932e+00  9.9977326517796461e-01  9.9981404107051064e-01  1.0000352405485586e+00  9.9962502187459579e-01  9.9951576423830180e-01  9.9934687075128570e-01  9.9731648080106095e-01  9.9367326422649471e-01  9.8367023301569856e-01  9.5497724381223115e-01  8.8754972783647412e-01  7.3980508897923403e-01  4.9803200815563281e-01  2.6063136717545593e-01  1.1319204713733139e-01  4.4625216287186055e-02  1.6735829216648013e-02  6.2130071294039385e-03  2.2518793222475165e-03  7.4451134904084809e-04  2.7591442296431124e-04  2.9643367733130988e-05  -3.0965670946220518e-05  -2.5854524233326505e-05  -1.0035844744829607e-04  -6.3163387305938053e-06  -1.1622751655478274e-04  -2.6336129153606196e-05  -4.5573740164017674e-05  -1.2210034674228965e-04  4.0502540062663840e-05  -1.4316174052378649e-04  2.0611536366565841e-09  9.9999999793883987e-01  1.0029725598173735e+00  9.9964546147555600e-01  1.0032471856820160e+00  9.9938760064908660e-01  1.0031260209196797e+00  9.9948849302816989e-01  1.0030404992339321e+00  9.9916591274747513e-01  1.0033536903368514e+00  9.9888697252028913e-01  1.0029715009435587e+00  9.9904482694355101e-01  1.0019155086383560e+00  9.9669448622957180e-01  9.9736093492331523e-01  9.8147469225235928e-01  9.5934639533114785e-01  8.8662593265393885e-01  7.4187035485076036e-01  5.0070361516525508e-01  2.6148381704052859e-01  1.1261098501785091e-01  4.5309001460900417e-02  1.6921075767939171e-02  7.4592382548560772e-03  2.5141443077577237e-03  2.0835103230068307e-03  5.4946179535884194e-04  1.2905061326528684e-03  2.5032181208866451e-04  1.1736144401336918e-03  1.7188967461182370e-04  1.1206050275548250e-03  1.3845888584835829e-04  1.1153006756346626e-03  4.7235442404992710e-05  1.1447884623872913e-03  9.7400234692797804e-08  1.0895194784957915e-03  2.0611536366565833e-09  9.9999999793883987e-01  9.9952538624686038e-01  1.0002090233577730e+00  9.9954501676797625e-01  9.9991121838784103e-01  9.9998322642959903e-01  9.9967663356249115e-01  9.9985704159386302e-01  1.0000460045209085e+00  9.9962513362389849e-01  9.9981563846036703e-01  1.0000633938936705e+00  9.9915085341299059e-01  9.9917534109819894e-01  9.9792759312667578e-01  9.9302365452731634e-01  9.8372261497431601e-01  9.5579116032912670e-01  8.8656507537956730e-01  7.4097781156661524e-01  4.9900442037944664e-01  2.6012104673891834e-01  1.1240537681588474e-01  4.4195575929564128e-02  1.6605405676628767e-02  6.1139604831302067e-03  2.1767310508542573e-03  7.8850257965833290e-04  2.0030481703285448e-04  2.6233945533828430e-05  -2.3753056087783633e-05  -6.6234380187856664e-05  -1.1097342539386484e-04  -7.9953592816649189e-06  -1.3435002406587059e-04  -5.3566189038793972e-05  -4.5897789668684471e-05  -1.1523158737106626e-04  -2.7265604170128749e-05  -1.0469398203586374e-04  2.0611536366565841e-09  9.9999999793883987e-01  1.0032733689309428e+00  9.9983963256310149e-01  1.0030544105336592e+00  1.0000062244178629e+00  1.0029315371371130e+00  9.9960354420579878e-01  1.0034433685555826e+00  9.9908845052125372e-01  1.0033310099606765e+00  9.9945591641000509e-01  1.0027055751576697e+00  9.9908900904547027e-01  1.0025799566106146e+00  9.9618030811172265e-01  9.9759754712826720e-01  9.8216299446399935e-01  9.5844835147227336e-01  8.8744307847769233e-01  7.4181898282098513e-01  5.0018263627667214e-01  2.6169538867777209e-01  1.1286820520159140e-01  4.5612707970187009e-02  1.7043364423238654e-02  7.5344775370103376e-03  2.6472774720923253e-03  2.1589164423535621e-03  5.8127178295772942e-04  1.4269315367823553e-03  3.0132343174717831e-04  1.2022316243886417e-03  3.1712148065997180e-04  1.1375765706684621e-03  1.9214080748963493e-04  1.2373834677474849e-03  5.6123227166572667e-05  1.2218501415255532e-03  6.5336476994067575e-05  1.1639721157384658e-03  2.0611536366565833e-09  9.9999999793883987e-01  9.9942671491253210e-01  9.9999172408896531e-01  9.9968617845062946e-01  9.9979907955852310e-01  9.9961668187436792e-01  1.0001373969250291e+00  9.9937516503238000e-01  9.9998180999264585e-01  9.9996212146335217e-01  9.9931797886319795e-01  1.0000552850178948e+00  9.9953908816697667e-01  9.9850048055279639e-01  9.9814454259527052e-01  9.9332891129708567e-01  9.8287102107462310e-01  9.5647311792960110e-01  8.8626079666943280e-01  7.4073827186332586e-01  4.9928109086071870e-01  2.6007945845862374e-01  1.1227393884313304e-01  4.4148924113855341e-02  1.6461649093763835e-02  6.1227015579564678e-03  2.1269518488753504e-03  7.0644862450364436e-04  1.9551546928602966e-04  1.4574066680101712e-05  -1.5449566425207795e-04  2.8524182236635314e-06  -1.8685422012143616e-04  -9.9087398434047225e-05  -5.4740334774180377e-05  -1.7275754417506059e-04  -7.3924516295450707e-05  -8.2986293895231740e-05  -1.2093591147069828e-04  -1.2313354595197819e-04  2.0611536366565837e-09  9.9999999793883987e-01  1.0035685176280484e+00  1.0002659093427817e+00  1.0031112000401043e+00  1.0002296499935130e+00  1.0033567725987826e+00  9.9970730170818478e-01  1.0034439912768105e+00  9.9986615145973934e-01  1.0029489265361886e+00  9.9986859964681596e-01  1.0032314803919840e+00  9.9867478745737204e-01  1.0031691348234182e+00  9.9651444149224755e-01  9.9713810874496156e-01  9.8307273212506341e-01  9.5818488698322957e-01  8.8763810846946067e-01  7.4215350029926075e-01  5.0022776604328423e-01  2.6180224088273585e-01  1.1306016000645719e-01  4.5769878187995140e-02  1.7175002664451263e-02  7.7384829933392881e-03  2.7063831678749307e-03  2.3407517489592838e-03  7.3094004395416574e-04  1.4771002375716857e-03  4.9618604340185743e-04  1.3238141234207148e-03  3.4589143022111993e-04  1.3706100435191089e-03  2.4365448573740231e-04  1.3026996733100464e-03  2.7090764201927382e-04  1.2455271961931318e-03  1.4881579163092035e-04  1.3621963945987105e-03  2.0611536366565841e-09  9.9999999793883987e-01  9.9984884913088967e-01  9.9963295282500886e-01  9.9989224199546323e-01  1.0000354256666952e+00  9.9934671186687352e-01  1.0003321105884770e+00  9.9957261148247034e-01  9.9976346964860197e-01  1.0000464530638409e+00  9.9973525987985612e-01  9.9946268699770713e-01  1.0000783146620202e+00  9.9852218235982559e-01  9.9769833168725675e-01  9.9406356022901710e-01  9.8237554637911617e-01  9.5669361846744783e-01  8.8638097327617371e-01  7.4062835618652278e-01  4.9938501840141181e-01  2.6011144149094467e-01  1.1231569284752750e-01  4.4163651702622299e-02  1.6497978878569710e-02  6.1496669837095737e-03  2.1301111343202768e-03  8.0248557314488401e-04  1.2774924858374894e-04  1.1937390164440906e-04  -1.4253715197486122e-04  -2.3732659392584621e-05  -9.3066806151557543e-05  -9.1013130892779692e-05  -9.2959366022902636e-05  -5.4691227830859019e-05  -9.2574009776851432e-05  -1.2415540241593164e-04  3.3263474070667938e-05  -2.0132994790840290e-04  2.0611536366565833e-09  9.9999999793883987e-01  1.0028377269886299e+00  9.9993985827129228e-01  1.0031004102975647e+00  9.9938879555224513e-01  1.0032922367556640e+00  9.9953394575639920e-01  1.0026490743873149e+00  9.9999301019029607e-01  1.0025316907167265e+00  9.9933799660732603e-01  1.0032411562783050e+00  9.9835202018352898e-01  1.0025351522604724e+00  9.9684672784892325e-01  9.9631811210164234e-01  9.8311282236330555e-01  9.5790666707891670e-01  8.8728969628303545e-01  7.4200410848626397e-01  4.9997523197985777e-01  2.6155004029777373e-01  1.1286999411528953e-01  4.5527082088204211e-02  1.6976906070275532e-02  7.5395495746676932e-03  2.4997811591187520e-03  2.1409234681036408e-03  5.4564031767156084e-04  1.3092839466301094e-03  2.6376249145411467e-04  1.2088711036223696e-03  1.4128162285574879e-04  1.1856812512755256e-03  1.1778729282620202e-04  1.1397116976592397e-03  5.0170141259843587e-05  1.1941302555490269e-03  -5.5561823803315215e-05  1.1656700657196319e-03  2.0611536366565837e-09  9.9999999793883987e-01  1.0000455076687211e+00  1.0001048308391809e+00  9.9973403436660313e-01  1.0003572491662964e+00  9.9979459915172253e-01  9.9996820535131647e-01  1.0002258535170212e+00  9.9985948183463280e-01  9.9981053737545367e-01  1.0005424692160492e+00  9.9911598671243951e-01  1.0003390295991246e+00  9.9896230769985017e-01  9.9738471124295747e-01  9.9458583214421814e-01  9.8234840117287814e-01  9.5681953996798952e-01  8.8659187183609489e-01  7.4070553907299241e-01  4.9951651676229891e-01  2.6025530694204885e-01  1.1242633502822080e-01  4.4262621972697154e-02  1.6658944737318011e-02  6.2181774761672854e-03  2.2419302437709800e-03  9.5667850970666975e-04  1.6274108713754362e-04  2.6996479804695196e-04  -5.5885351006278999e-05  6.7299649051420906e-05  -7.0648497471134091e-06  3.0251154788452227e-05  -2.9054427224578549e-05  2.4008625286332672e-05  3.2591361914768587e-05  -6.9709024062814261e-05  8.6085286454203538e-05  -3.9289152154852197e-05  2.0611536366565841e-09  9.9999999793883987e-01  1.0027903988700100e+00  9.9967199171467525e-01  1.0031180039516452e+00  9.9939706838878395e-01  1.0029059968460559e+00  9.9972355446606365e-01  1.0025521377293269e+00  9.9957074852375860e-01  1.0029618039649486e+00  9.9889994248734848e-01  1.0031038209257168e+00  9.9878289057271863e-01  1.0017128990533428e+00  9.9746650296120454e-01  9.9582105395212417e-01  9.8317175881445651e-01  9.5790123102568459e-01  8.8711990872652791e-01  7.4199371935293668e-01  4.9992157729097308e-01  2.6146035309585325e-01  1.1281597464617830e-01  4.5496077064403340e-02  1.6893903152390387e-02  7.4660679726373646e-03  2.5224794477249927e-03  1.9953602371371184e-03  5.4052218911851478e-04  1.2954580583189510e-03  1.2266882489932662e-04  1.2482570434774575e-03  6.0362373113566501e-05  1.1305559477247241e-03  8.2209374518049926e-05  1.1273922893984738e-03  -5.0788552036307944e-05  1.1944310977136680e-03  -8.2488241108455264e-05  1.0745406427530235e-03  2.0611536366565853e-09  9.9999999793883987e-01  1.0000829487827860e+00  1.0004806208487327e+00  9.9971243888842021e-01  1.0004110623412574e+00  1.0001725931529615e+00  9.9987082918717474e-01  1.0003520721194097e+00  1.0001931075649171e+00  9.9966310496518940e-01  1.0007381902270907e+00  9.9941929519653616e-01  1.0000626950965097e+00  9.9942679615421148e-01  9.9732667461864777e-01  9.9460012493429373e-01  9.8267046183090567e-01  9.5670090262329055e-01  8.8677733906550060e-01  7.4082089672303608e-01  4.9953166423155465e-01  2.6037570726691944e-01  1.1253684190280050e-01  4.4289647375586369e-02  1.6755482410900482e-02  6.3392348791348483e-03  2.2458745522833585e-03  1.0589315608464595e-03  2.8284601055120288e-04  2.4462300892082840e-04  7.4358408271393264e-05  1.5957435721619521e-04  -4.2628209935056521e-05  1.9122575047444873e-04  6.5181213541414482e-06  3.1981203547141074e-05  1.5573966814228272e-04  -1.5312232223080146e-05  6.2087387336027608e-05  1.2130458318004633e-04  2.0611536366565841e-09  9.9999999793883987e-01  1.0033312776317835e+00  9.9949712951177361e-01  1.0032577499362361e+00  9.9988681717951855e-01  1.0025948407855676e+00  1.0000855736170051e+00  1.0028372286278440e+00  9.9926703585779908e-01  1.0035094029754219e+00  9.9886886199182434e-01  1.0030242805052647e+00  9.9932639476575524e-01  1.0013707787040333e+00  9.9791383065008543e-01  9.9572327425768881e-01  9.8342279587834047e-01  9.5784235798694450e-01  8.8739774298147533e-01  7.4195326907111081e-01  5.0005233200204702e-01  2.6161740790670335e-01  1.1280767479241571e-01  4.5628967436512312e-02  1.7024867145708538e-02  7.4518403933864297e-03  2.6738240465249232e-03  2.0826977106550783e-03  5.5484541125827732e-04  1.4147696799921986e-03  2.2662772889174432e-04  1.2344553174096656e-03  1.8942179682880701e-04  1.2395657230957601e-03  1.2292077569589449e-05  1.3385205149062454e-03  -4.2792641052201353e-05  1.1895788074919201e-03  9.9418250050975493e-05  1.0685271247607530e-03  2.0611536366565841e-09  9.9999999793883987e-01  9.9940151403772959e-01  1.0000860710585822e+00  9.9978526872342921e-01  9.9954314974836211e-01  1.0001077442610897e+00  9.9974691036066154e-01  9.9949298378504947e-01  1.0004272290050580e+00  9.9917460456250795e-01  1.0001596097078336e+00  9.9975080519659232e-01  9.9913818313751046e-01  9.9958088806066070e-01  9.9694604993937075e-01  9.9422960189639875e-01  9.8262454681983313e-01  9.5625448653293121e-01  8.8671959044955573e-01  7.4040765400960196e-01  4.9948263468652637e-01  2.6002399155905059e-01  1.1234971387177221e-01  4.4158827851029828e-02  1.6422198720932452e-02  6.2234382028944490e-03  2.0633442949523338e-03  7.8229661745957189e-04  1.7678021186129264e-04  5.4028465887722937e-05  -1.5640524584412474e-04  3.3485441185490778e-05  -1.8228635650035477e-04  -7.2750351750623196e-05  -6.2364412645799991e-05  -1.1426188043743351e-04  -1.2894813892537482e-04  1.5145980559176136e-05  -1.8800775619621753e-04  -5.6610437197670429e-05  2.0611536366565841e-09  9.9999999793883987e-01  1.0037205224315513e+00  1.0001705898100772e+00  1.0031638017266380e+00  1.0004301268643652e+00  1.0031074313627433e+00  9.9992175106282621e-01  1.0036014125685666e+00  9.9943537618111677e-01  1.0035226200556104e+00  9.9968371512610743e-01  1.0028091946861704e+00  9.9984316881562685e-01  1.0016666550239439e+00  9.9800495940638656e-01  9.9609829514232073e-01  9.8369417641612367e-01  9.5792403430841233e-01  8.8783883693861942e-01  7.4199758126980964e-01  5.0042168046823798e-01  2.6169897136064030e-01  1.1315945139664313e-01  4.5717015387555772e-02  1.7274573489448237e-02  7.6920838465135586e-03  2.7672545029510699e-03  2.3446711761007447e-03  7.4363410328668472e-04  1.5134233381007985e-03  4.8209668893284464e-04  1.3896079074765847e-03  2.8988873424797690e-04  1.4825620448805845e-03  1.4847616859252222e-04  1.4251853046553630e-03  2.0389301574970866e-04  1.3015705623520238e-03  1.5731045521016277e-04  1.3702983898290081e-03  2.0611536366565841e-09  9.9999999793883987e-01  9.9976631130410276e-01  9.9975585651003518e-01  1.0000940719570799e+00  9.9963571546229002e-01  9.9989345366886140e-01  1.0001104268578145e+00  9.9940759351841146e-01  1.0003693901768154e+00  9.9950752026896794e-01  9.9991096676347035e-01  1.0000035448442739e+00  9.9907716835204674e-01  9.9972063143832979e-01  9.9683792554306516e-01  9.9448369118312374e-01  9.8248335114598861e-01  9.5635502341368006e-01  8.8686919725823399e-01  7.4021549860241342e-01  4.9978057548773819e-01  2.5985807026022584e-01  1.1251155149885089e-01  4.4119805771566774e-02  1.6520124570122138e-02  6.2014575699798190e-03  2.1193096495047956e-03  8.5042840514375012e-04  1.3058976340206858e-04  1.4941036263503362e-04  -1.2073725510950170e-04  -2.0511975728871774e-05  -4.3637593922906558e-05  -1.0671837474138546e-04  -5.9201161416798687e-05  -5.1069484207085084e-06  -1.7284813602282771e-04  4.3631462828578525e-05  -1.0747287993334704e-04  -8.2532378228667965e-05  2.0611536366565853e-09  9.9999999793883987e-01  1.0036571747715237e+00  1.0003488918445960e+00  1.0031706245386385e+00  1.0003324991869287e+00  1.0034025242722162e+00  9.9970189309033586e-01  1.0037728944505417e+00  9.9951352067116250e-01  1.0033507550145737e+00  1.0000230806806172e+00  1.0025077785871688e+00  1.0001734921681484e+00  1.0014851497892598e+00  9.9812086645747700e-01  9.9618606088692851e-01  9.8354321546145973e-01  9.5818057558914038e-01  8.8769007165470470e-01  7.4205926158070556e-01  5.0058343139547523e-01  2.6146112859209819e-01  1.1348160655185266e-01  4.5498866099878146e-02  1.7442782470129942e-02  7.6521443395119104e-03  2.8142116898001819e-03  2.3486347935045954e-03  7.7327168329940574e-04  1.5566208701148067e-03  4.4107009879587399e-04  1.4822603811563005e-03  2.7269092834551393e-04  1.4678950801238441e-03  2.5755238730471291e-04  1.3485060467394267e-03  2.6064561737696780e-04  1.3556607752611071e-03  9.0308406482596880e-05  1.4577592922467198e-03  2.0611536366565841e-09  9.9999999793883987e-01  1.0002901902567745e+00  9.9955229252346112e-01  1.0004304206564820e+00  9.9987643989037644e-01  9.9977092894290209e-01  1.0005190015667209e+00  9.9948825952326537e-01  1.0002883958242341e+00  1.0000755151340663e+00  9.9956719472115774e-01  1.0004782076226548e+00  9.9907678829563273e-01  9.9977240734278139e-01  9.9712064559295277e-01  9.9446452608900071e-01  9.8262619359522674e-01  9.5655689785376485e-01  8.8680820104127334e-01  7.4049645769156902e-01  4.9977457095214745e-01  2.5994870617659477e-01  1.1275125100437380e-01  4.3972790150859226e-02  1.6887799217705102e-02  6.0627764477539986e-03  2.3413531381948367e-03  8.9982969836403413e-04  1.9819533122772916e-04  2.4770992365859745e-04  -2.8772350196823083e-05  3.0214060696145320e-05  4.1407134374801947e-05  -2.7862845335071093e-06  -3.8119967963976814e-05  9.4702593959381315e-05  -7.4584843892157030e-05  2.7593161294975194e-05  4.6156781433827683e-05  -4.8150622356383257e-05  2.0611536366565841e-09  9.9999999793883987e-01  1.0030311841298802e+00  1.0001675144111888e+00  1.0031285288548384e+00  9.9955553937151587e-01  1.0036349760761500e+00  9.9920779907322954e-01  1.0033675524975321e+00  9.9968930643532827e-01  1.0026466701745471e+00  1.0000666980662611e+00  1.0022402839426481e+00  9.9983578801498485e-01  1.0013603479375190e+00  9.9793628757034070e-01  9.9583189436717712e-01  9.8349554041003440e-01  9.5792117944808519e-01  8.8741998572157343e-01  7.4203715738784670e-01  5.0022649044918444e-01  2.6138321161125194e-01  1.1330627308234427e-01  4.5226112250809893e-02  1.7459714474193047e-02  7.2475151575315880e-03  2.9142272229412030e-03  1.9734040077727544e-03  7.4696727837014884e-04  1.4017736688152996e-03  2.1838587721904651e-04  1.4335524087424080e-03  1.0024625670717523e-04  1.2939635188607744e-03  2.0314808176604202e-04  1.1761304268643196e-03  1.1426326763554545e-04  1.3018765319997834e-03  -7.2174175700912102e-05  1.3078437140585813e-03  2.0611536366565841e-09  9.9999999793883987e-01  1.0008257195635624e+00  9.9995760524813027e-01  1.0004085439045609e+00  1.0005116254395168e+00  9.9999063674160138e-01  1.0005303159370562e+