<?xml version="1.0"?>
<VTKFile type="UnstructuredGrid"  version="0.1"  >
<UnstructuredGrid>
<Piece  NumberOfPoints="12961" NumberOfCells="25600">
<Points>
<DataArray  type="Float64"  NumberOfComponents="3"  format="ascii">0 0 0  0.0125 0 0  0.025 0 0  0.0375 0 0  0.05 0 0  0.0625 0 0  0.075 0 0  0.08749999999999999 0 0  0.1 0 0  0.1125 0 0  0.125 0 0  0.1375 0 0  0.15 0 0  0.1625 0 0  0.175 0 0  0.1875 0 0  0.2 0 0  0.2125 0 0  0.225 0 0  0.2375 0 0  0.25 0 0  0.2625 0 0  0.275 0 0  0.2875 0 0  0.3 0 0  0.3125 0 0  0.325 0 0  0.3375 0 0  0.35 0 0  0.3625 0 0  0.375 0 0  0.3875 0 0  0.4 0 0  0.4125 0 0  0.425 0 0  0.4375 0 0  0.45 0 0  0.4625 0 0  0.475 0 0  0.4875 0 0  0.5 0 0  0.5125 0 0  0.525 0 0  0.5375 0 0  0.55 0 0  0.5625 0 0  0.575 0 0  0.5875 0 0  0.6 0 0  0.6125 0 0  0.625 0 0  0.6375 0 0  0.65 0 0  0.6625 0 0  0.675 0 0  0.6875 0 0  0.7 0 0  0.7125 0 0  0.725 0 0  0.7375 0 0  0.75 0 0  0.7625 0 0  0.775 0 0  0.7875 0 0  0.8 0 0  0.8125 0 0  0.825 0 0  0.8375 0 0  0.85 0 0  0.8625 0 0  0.875 0 0  0.8875 0 0  0.9 0 0  0.9125 0 0  0.925 0 0  0.9375 0 0  0.95 0 0  0.9625 0 0  0.975 0 0  0.9875 0 0  1 0 0  0 0.0125 0  0.0125 0.0125 0  0.025 0.0125 0  0.0375 0.0125 0  0.05 0.0125 0  0.0625 0.0125 0  0.075 0.0125 0  0.08749999999999999 0.0125 0  0.1 0.0125 0  0.1125 0.0125 0  0.125 0.0125 0  0.1375 0.0125 0  0.15 0.0125 0  0.1625 0.0125 0  0.175 0.0125 0  0.1875 0.0125 0  0.2 0.0125 0  0.2125 0.0125 0  0.225 0.0125 0  0.2375 0.0125 0  0.25 0.0125 0  0.2625 0.0125 0  0.275 0.0125 0  0.2875 0.0125 0  0.3 0.0125 0  0.3125 0.0125 0  0.325 0.0125 0  0.3375 0.0125 0  0.35 0.0125 0  0.3625 0.0125 0  0.375 0.0125 0  0.3875 0.0125 0  0.4 0.0125 0  0.4125 0.0125 0  0.425 0.0125 0  0.4375 0.0125 0  0.45 0.0125 0  0.4625 0.0125 0  0.475 0.0125 0  0.4875 0.0125 0  0.5 0.0125 0  0.5125 0.0125 0  0.525 0.0125 0  0.5375 0.0125 0  0.55 0.0125 0  0.5625 0.0125 0  0.575 0.0125 0  0.5875 0.0125 0  0.6 0.0125 0  0.6125 0.0125 0  0.625 0.0125 0  0.6375 0.0125 0  0.65 0.0125 0  0.6625 0.0125 0  0.675 0.0125 0  0.6875 0.0125 0  0.7 0.0125 0  0.7125 0.0125 0  0.725 0.0125 0  0.7375 0.0125 0  0.75 0.0125 0  0.7625 0.0125 0  0.775 0.0125 0  0.7875 0.0125 0  0.8 0.0125 0  0.8125 0.0125 0  0.825 0.0125 0  0.8375 0.0125 0  0.85 0.0125 0  0.8625 0.0125 0  0.875 0.0125 0  0.8875 0.0125 0  0.9 0.0125 0  0.9125 0.0125 0  0.925 0.0125 0  0.9375 0.0125 0  0.95 0.0125 0  0.9625 0.0125 0  0.975 0.0125 0  0.9875 0.0125 0  1 0.0125 0  0 0.025 0  0.0125 0.025 0  0.025 0.025 0  0.0375 0.025 0  0.05 0.025 0  0.0625 0.025 0  0.075 0.025 0  0.08749999999999999 0.025 0  0.1 0.025 0  0.1125 0.025 0  0.125 0.025 0  0.1375 0.025 0  0.15 0.025 0  0.1625 0.025 0  0.175 0.025 0  0.1875 0.025 0  0.2 0.025 0  0.2125 0.025 0  0.225 0.025 0  0.2375 0.025 0  0.25 0.025 0  0.2625 0.025 0  0.275 0.025 0  0.2875 0.025 0  0.3 0.025 0  0.3125 0.025 0  0.325 0.025 0  0.3375 0.025 0  0.35 0.025 0  0.3625 0.025 0  0.375 0.025 0  0.3875 0.025 0  0.4 0.025 0  0.4125 0.025 0  0.425 0.025 0  0.4375 0.025 0  0.45 0.025 0  0.4625 0.025 0  0.475 0.025 0  0.4875 0.025 0  0.5 0.025 0  0.5125 0.025 0  0.525 0.025 0  0.5375 0.025 0  0.55 0.025 0  0.5625 0.025 0  0.575 0.025 0  0.5875 0.025 0  0.6 0.025 0  0.6125 0.025 0  0.625 0.025 0  0.6375 0.025 0  0.65 0.025 0  0.6625 0.025 0  0.675 0.025 0  0.6875 0.025 0  0.7 0.025 0  0.7125 0.025 0  0.725 0.025 0  0.7375 0.025 0  0.75 0.025 0  0.7625 0.025 0  0.775 0.025 0  0.7875 0.025 0  0.8 0.025 0  0.8125 0.025 0  0.825 0.025 0  0.8375 0.025 0  0.85 0.025 0  0.8625 0.025 0  0.875 0.025 0  0.8875 0.025 0  0.9 0.025 0  0.9125 0.025 0  0.925 0.025 0  0.9375 0.025 0  0.95 0.025 0  0.9625 0.025 0  0.975 0.025 0  0.9875 0.025 0  1 0.025 0  0 0.0375 0  0.0125 0.0375 0  0.025 0.0375 0  0.0375 0.0375 0  0.05 0.0375 0  0.0625 0.0375 0  0.075 0.0375 0  0.08749999999999999 0.0375 0  0.1 0.0375 0  0.1125 0.0375 0  0.125 0.0375 0  0.1375 0.0375 0  0.15 0.0375 0  0.1625 0.0375 0  0.175 0.0375 0  0.1875 0.0375 0  0.2 0.0375 0  0.2125 0.0375 0  0.225 0.0375 0  0.2375 0.0375 0  0.25 0.0375 0  0.2625 0.0375 0  0.275 0.0375 0  0.2875 0.0375 0  0.3 0.0375 0  0.3125 0.0375 0  0.325 0.0375 0  0.3375 0.0375 0  0.35 0.0375 0  0.3625 0.0375 0  0.375 0.0375 0  0.3875 0.0375 0  0.4 0.0375 0  0.4125 0.0375 0  0.425 0.0375 0  0.4375 0.0375 0  0.45 0.0375 0  0.4625 0.0375 0  0.475 0.0375 0  0.4875 0.0375 0  0.5 0.0375 0  0.5125 0.0375 0  0.525 0.0375 0  0.5375 0.0375 0  0.55 0.0375 0  0.5625 0.0375 0  0.575 0.0375 0  0.5875 0.0375 0  0.6 0.0375 0  0.6125 0.0375 0  0.625 0.0375 0  0.6375 0.0375 0  0.65 0.0375 0  0.6625 0.0375 0  0.675 0.0375 0  0.6875 0.0375 0  0.7 0.0375 0  0.7125 0.0375 0  0.725 0.0375 0  0.7375 0.0375 0  0.75 0.0375 0  0.7625 0.0375 0  0.775 0.0375 0  0.7875 0.0375 0  0.8 0.0375 0  0.8125 0.0375 0  0.825 0.0375 0  0.8375 0.0375 0  0.85 0.0375 0  0.8625 0.0375 0  0.875 0.0375 0  0.8875 0.0375 0  0.9 0.0375 0  0.9125 0.0375 0  0.925 0.0375 0  0.9375 0.0375 0  0.95 0.0375 0  0.9625 0.0375 0  0.975 0.0375 0  0.9875 0.0375 0  1 0.0375 0  0 0.05 0  0.0125 0.05 0  0.025 0.05 0  0.0375 0.05 0  0.05 0.05 0  0.0625 0.05 0  0.075 0.05 0  0.08749999999999999 0.05 0  0.1 0.05 0  0.1125 0.05 0  0.125 0.05 0  0.1375 0.05 0  0.15 0.05 0  0.1625 0.05 0  0.175 0.05 0  0.1875 0.05 0  0.2 0.05 0  0.2125 0.05 0  0.225 0.05 0  0.2375 0.05 0  0.25 0.05 0  0.2625 0.05 0  0.275 0.05 0  0.2875 0.05 0  0.3 0.05 0  0.3125 0.05 0  0.325 0.05 0  0.3375 0.05 0  0.35 0.05 0  0.3625 0.05 0  0.375 0.05 0  0.3875 0.05 0  0.4 0.05 0  0.4125 0.05 0  0.425 0.05 0  0.4375 0.05 0  0.45 0.05 0  0.4625 0.05 0  0.475 0.05 0  0.4875 0.05 0  0.5 0.05 0  0.5125 0.05 0  0.525 0.05 0  0.5375 0.05 0  0.55 0.05 0  0.5625 0.05 0  0.575 0.05 0  0.5875 0.05 0  0.6 0.05 0  0.6125 0.05 0  0.625 0.05 0  0.6375 0.05 0  0.65 0.05 0  0.6625 0.05 0  0.675 0.05 0  0.6875 0.05 0  0.7 0.05 0  0.7125 0.05 0  0.725 0.05 0  0.7375 0.05 0  0.75 0.05 0  0.7625 0.05 0  0.775 0.05 0  0.7875 0.05 0  0.8 0.05 0  0.8125 0.05 0  0.825 0.05 0  0.8375 0.05 0  0.85 0.05 0  0.8625 0.05 0  0.875 0.05 0  0.8875 0.05 0  0.9 0.05 0  0.9125 0.05 0  0.925 0.05 0  0.9375 0.05 0  0.95 0.05 0  0.9625 0.05 0  0.975 0.05 0  0.9875 0.05 0  1 0.05 0  0 0.0625 0  0.0125 0.0625 0  0.025 0.0625 0  0.0375 0.0625 0  0.05 0.0625 0  0.0625 0.0625 0  0.075 0.0625 0  0.08749999999999999 0.0625 0  0.1 0.0625 0  0.1125 0.0625 0  0.125 0.0625 0  0.1375 0.0625 0  0.15 0.0625 0  0.1625 0.0625 0  0.175 0.0625 0  0.1875 0.0625 0  0.2 0.0625 0  0.2125 0.0625 0  0.225 0.0625 0  0.2375 0.0625 0  0.25 0.0625 0  0.2625 0.0625 0  0.275 0.0625 0  0.2875 0.0625 0  0.3 0.0625 0  0.3125 0.0625 0  0.325 0.0625 0  0.3375 0.0625 0  0.35 0.0625 0  0.3625 0.0625 0  0.375 0.0625 0  0.3875 0.0625 0  0.4 0.0625 0  0.4125 0.0625 0  0.425 0.0625 0  0.4375 0.0625 0  0.45 0.0625 0  0.4625 0.0625 0  0.475 0.0625 0  0.4875 0.0625 0  0.5 0.0625 0  0.5125 0.0625 0  0.525 0.0625 0  0.5375 0.0625 0  0.55 0.0625 0  0.5625 0.0625 0  0.575 0.0625 0  0.5875 0.0625 0  0.6 0.0625 0  0.6125 0.0625 0  0.625 0.0625 0  0.6375 0.0625 0  0.65 0.0625 0  0.6625 0.0625 0  0.675 0.0625 0  0.6875 0.0625 0  0.7 0.0625 0  0.7125 0.0625 0  0.725 0.0625 0  0.7375 0.0625 0  0.75 0.0625 0  0.7625 0.0625 0  0.775 0.0625 0  0.7875 0.0625 0  0.8 0.0625 0  0.8125 0.0625 0  0.825 0.0625 0  0.8375 0.0625 0  0.85 0.0625 0  0.8625 0.0625 0  0.875 0.0625 0  0.8875 0.0625 0  0.9 0.0625 0  0.9125 0.0625 0  0.925 0.0625 0  0.9375 0.0625 0  0.95 0.0625 0  0.9625 0.0625 0  0.975 0.0625 0  0.9875 0.0625 0  1 0.0625 0  0 0.075 0  0.0125 0.075 0  0.025 0.075 0  0.0375 0.075 0  0.05 0.075 0  0.0625 0.075 0  0.075 0.075 0  0.08749999999999999 0.075 0  0.1 0.075 0  0.1125 0.075 0  0.125 0.075 0  0.1375 0.075 0  0.15 0.075 0  0.1625 0.075 0  0.175 0.075 0  0.1875 0.075 0  0.2 0.075 0  0.2125 0.075 0  0.225 0.075 0  0.2375 0.075 0  0.25 0.075 0  0.2625 0.075 0  0.275 0.075 0  0.2875 0.075 0  0.3 0.075 0  0.3125 0.075 0  0.325 0.075 0  0.3375 0.075 0  0.35 0.075 0  0.3625 0.075 0  0.375 0.075 0  0.3875 0.075 0  0.4 0.075 0  0.4125 0.075 0  0.425 0.075 0  0.4375 0.075 0  0.45 0.075 0  0.4625 0.075 0  0.475 0.075 0  0.4875 0.075 0  0.5 0.075 0  0.5125 0.075 0  0.525 0.075 0  0.5375 0.075 0  0.55 0.075 0  0.5625 0.075 0  0.575 0.075 0  0.5875 0.075 0  0.6 0.075 0  0.6125 0.075 0  0.625 0.075 0  0.6375 0.075 0  0.65 0.075 0  0.6625 0.075 0  0.675 0.075 0  0.6875 0.075 0  0.7 0.075 0  0.7125 0.075 0  0.725 0.075 0  0.7375 0.075 0  0.75 0.075 0  0.7625 0.075 0  0.775 0.075 0  0.7875 0.075 0  0.8 0.075 0  0.8125 0.075 0  0.825 0.075 0  0.8375 0.075 0  0.85 0.075 0  0.8625 0.075 0  0.875 0.075 0  0.8875 0.075 0  0.9 0.075 0  0.9125 0.075 0  0.925 0.075 0  0.9375 0.075 0  0.95 0.075 0  0.9625 0.075 0  0.975 0.075 0  0.9875 0.075 0  1 0.075 0  0 0.08749999999999999 0  0.0125 0.08749999999999999 0  0.025 0.08749999999999999 0  0.0375 0.08749999999999999 0  0.05 0.08749999999999999 0  0.0625 0.08749999999999999 0  0.075 0.08749999999999999 0  0.08749999999999999 0.08749999999999999 0  0.1 0.08749999999999999 0  0.1125 0.08749999999999999 0  0.125 0.08749999999999999 0  0.1375 0.08749999999999999 0  0.15 0.08749999999999999 0  0.1625 0.08749999999999999 0  0.175 0.08749999999999999 0  0.1875 0.08749999999999999 0  0.2 0.08749999999999999 0  0.2125 0.08749999999999999 0  0.225 0.08749999999999999 0  0.2375 0.08749999999999999 0  0.25 0.08749999999999999 0  0.2625 0.08749999999999999 0  0.275 0.08749999999999999 0  0.2875 0.08749999999999999 0  0.3 0.08749999999999999 0  0.3125 0.08749999999999999 0  0.325 0.08749999999999999 0  0.3375 0.08749999999999999 0  0.35 0.08749999999999999 0  0.3625 0.08749999999999999 0  0.375 0.08749999999999999 0  0.3875 0.08749999999999999 0  0.4 0.08749999999999999 0  0.4125 0.08749999999999999 0  0.425 0.08749999999999999 0  0.4375 0.08749999999999999 0  0.45 0.08749999999999999 0  0.4625 0.08749999999999999 0  0.475 0.08749999999999999 0  0.4875 0.08749999999999999 0  0.5 0.08749999999999999 0  0.5125 0.08749999999999999 0  0.525 0.08749999999999999 0  0.5375 0.08749999999999999 0  0.55 0.08749999999999999
[...]
<PointData  Scalars="f_87"> 
<DataArray  type="Float64"  Name="f_87"  format="ascii">9.9999999793884009e-01  9.9999999660172567e-01  9.9999999439719678e-01  9.9999999076254409e-01  9.9999998477001417e-01  9.9999997489000247e-01  9.9999995860061786e-01  9.9999993174396473e-01  9.9999988746483159e-01  9.9999981446089181e-01  9.9999969409776568e-01  9.9999949565258517e-01  9.9999916847196546e-01  9.9999862904278680e-01  9.9999773967569450e-01  9.9999627336070840e-01  9.9999385582539113e-01  9.9998987000901229e-01  9.9998329857814550e-01  9.9997246430887798e-01  9.9995460213129028e-01  9.9992515377248259e-01  9.9987660542400725e-01  9.9979657302193858e-01  9.9966464986952719e-01  9.9944722136306918e-01  9.9908894880559285e-01  9.9849881774325633e-01  9.9752737684335890e-01  9.9592986228409752e-01  9.9330714907570794e-01  9.8901305736940026e-01  9.8201379003790168e-01  9.7068776924863776e-01  9.5257412682242715e-01  9.2414181997875011e-01  8.8079707797787654e-01  8.1757447619363843e-01  7.3105857863000079e-01  6.2245933120185093e-01  4.9999999999999623e-01  3.7754066879814413e-01  2.6894142136999372e-01  1.8242552380635552e-01  1.1920292202211641e-01  7.5858180021242977e-02  4.7425873177566684e-02  2.9312230751356191e-02  1.7986209962091458e-02  1.0986942630593103e-02  6.6928509242847921e-03  4.0701377158961355e-03  2.4726231566347596e-03  1.5011822567370023e-03  9.1105119440065125e-04  5.5277863692359684e-04  3.3535013046648190e-04  2.0342697805519818e-04  1.2339457598625699e-04  7.4846227510638158e-05  4.5397868702445535e-05  2.7535691114577344e-05  1.6701421848119789e-05  1.0129990980878248e-05  6.1441746022072355e-06  3.7266392841628063e-06  2.2603242978980126e-06  1.3709572068698555e-06  8.3152802765606537e-07  5.0434740822557685e-07  3.0590222693804609e-07  1.8553910186014322e-07  1.1253516207787542e-07  6.8256029106538929e-08  4.1399375483308294e-08  2.5109990919869120e-08  1.5229979499764515e-08  9.2374495830327121e-09  5.6027963935001118e-09  3.3982678337984582e-09  2.0611536366565787e-09  9.9999999793883998e-01  9.9998248804905332e-01  9.9998990257159981e-01  9.9998635938142000e-01  9.9998760922383012e-01  9.9998678880488079e-01  9.9998682934668626e-01  9.9998649575260246e-01  9.9998628956717184e-01  9.9998599248301467e-01  9.9998566999528915e-01  9.9998525841286523e-01  9.9998472172771680e-01  9.9998397295990638e-01  9.9998287987116552e-01  9.9998122000521483e-01  9.9997862835868701e-01  9.9997450231904184e-01  9.9996784868988831e-01  9.9995703030204641e-01  9.9993934880460589e-01  9.9991035591718813e-01  9.9986271738771071e-01  9.9978434193404675e-01  9.9965530455957874e-01  9.9944279038434025e-01  9.9909278531713674e-01  9.9851643552876812e-01  9.9756774789587022e-01  9.9600743053181273e-01  9.9344498071984277e-01  9.8924759408741036e-01  9.8240103908239140e-01  9.7130851850618638e-01  9.5353114149308538e-01  9.2553572348280755e-01  8.8266442955464275e-01  8.1978378989126699e-01  7.3320918359543907e-01  6.2391557517222851e-01  5.0019949273024222e-01  3.7642422286929472e-01  2.6702077366051452e-01  1.8037120647502641e-01  1.1745203577949939e-01  7.4551131549982497e-02  4.6525794624706684e-02  2.8722320650080464e-02  1.7611118338148345e-02  1.0752811936337868e-02  6.5483447182321831e-03  3.9815570251164160e-03  2.4185497881172367e-03  1.4682569407584774e-03  8.9103368802956535e-04  5.4061998465894173e-04  3.2796913203843531e-04  1.9894783256974179e-04  1.2067698835774159e-04  7.3197629217823865e-05  4.4397848036420460e-05  2.6929127505063364e-05  1.6333529770650147e-05  9.9068709460193244e-06  6.0088673229783231e-06  3.6445948664707496e-06  2.2105863145223726e-06  1.3408146304749374e-06  8.1327112019460546e-07  4.9329994119000887e-07  2.9922791461477902e-07  1.8151764676327725e-07  1.1012314832277333e-07  6.6820597648615089e-08  4.0556707101253154e-08  2.4627346168382133e-08  1.4966219074049096e-08  9.1067577164462421e-09  5.5523161633868045e-09  3.3945056969498389e-09  2.0611536366565816e-09  9.9999999793883965e-01  9.9999162764445382e-01  9.9999420843902176e-01  9.9999337828162971e-01  9.9999341511151574e-01  9.9999330603493553e-01  9.9999316583097009e-01  9.9999305061788024e-01  9.9999289284943871e-01  9.9999271682426460e-01  9.9999248675169239e-01  9.9999217960838604e-01  9.9999174194321905e-01  9.9999109189282198e-01  9.9999009207001355e-01  9.9998851695262703e-01  9.9998599448438164e-01  9.9998191142194870e-01  9.9997525645611984e-01  9.9996436190971250e-01  9.9994647841195128e-01  9.9991707470254498e-01  9.9986868352001224e-01  9.9978899777028796e-01  9.9965773235854982e-01  9.9944146378751386e-01  9.9908516864929409e-01  9.9849838192835350e-01  9.9753261133105386e-01  9.9594468180206441e-01  9.9333795143327397e-01  9.8907011516994670e-01  9.8211391604659637e-01  9.7085962232288259e-01  9.5286660713074611e-01  9.2463050953382508e-01  8.8157154549676620e-01  8.1867839604536974e-01  7.3237671305470009e-01  6.2363872013785104e-01  5.0058067826228747e-01  3.7729671626192279e-01  2.6806644707813365e-01  1.8132621902640880e-01  1.1819767928319916e-01  7.5079701338929397e-02  4.6878655782980803e-02  2.8949286905596013e-02  1.7753803598556266e-02  1.0841264623563059e-02  6.6027105943497755e-03  4.0147984934811838e-03  2.4388106481269623e-03  1.4805823179020227e-03  8.9852287906093094e-04  5.4516736715743493e-04  3.3072907809095047e-04  2.0062248748370744e-04  1.2169295508282060e-04  7.3813924565243192e-05  4.4771672619835048e-05  2.7155864762033195e-05  1.6471046077702365e-05  9.9902689677282091e-06  6.0594397123400278e-06  3.6752569361713233e-06  2.2291718405232615e-06  1.3520751253399025e-06  8.2008855100313060e-07  4.9742231750417673e-07  3.0171546139227083e-07  1.8301342934558258e-07  1.1101721116286618e-07  6.7349500738456218e-08  4.0863876120169234e-08  2.4799700574941319e-08  1.5056539283574229e-08  9.1475786742000381e-09  5.5647831540573689e-09  3.3934816962117865e-09  2.0611536366565787e-09  9.9999999793884009e-01  9.9998701785784361e-01  9.9999260655685607e-01  9.9998983916264117e-01  9.9999090537281388e-01  9.9999018823075514e-01  9.9999028248456001e-01  9.9998999045215464e-01  9.9998984632800925e-01  9.9998959820591193e-01  9.9998933274042257e-01  9.9998897482776594e-01  9.9998849346609520e-01  9.9998779881097566e-01  9.9998675865592879e-01  9.9998514855197451e-01  9.9998260105335546e-01  9.9997850945594036e-01  9.9997187415405409e-01  9.9996104705777389e-01  9.9994331068944398e-01  9.9991418418745170e-01  9.9986628105034348e-01  9.9978742927395914e-01  9.9965757580855596e-01  9.9944368784886917e-01  9.9909136688151634e-01  9.9851110574506641e-01  9.9755588470784251e-01  9.9598488880758407e-01  9.9340530164746399e-01  9.8918047663256858e-01  9.8228962876447801e-01  9.7112621964632495e-01  9.5324170157767441e-01  9.2510410160008494e-01  8.8208534166598507e-01  8.1912197527897546e-01  7.3261951897292699e-01  6.2359594593819512e-01  5.0027202791469150e-01  3.7683963415333804e-01  2.6759889452651853e-01  1.8093474422286465e-01  1.1790750775148599e-01  7.4880452807102454e-02  4.6748206295063571e-02  2.8866373813654991e-02  1.7702056213197075e-02  1.0809327141090406e-02  6.5831334766473003e-03  4.0028477602197703e-03  2.4315338315721666e-03  1.4761582367943539e-03  8.9583568561795281e-04  5.4353608407670410e-04  3.2973913646673956e-04  2.0002186964495437e-04  1.2132859600864226e-04  7.3592908534072610e-05  4.4637615115492219e-05  2.7074556412033644e-05  1.6421734020158837e-05  9.9603645434186378e-06  6.0413069967264922e-06  3.6642643163980135e-06  2.2225100328679647e-06  1.3480401891415598e-06  8.1764698670120076e-07  4.9594727299975134e-07  3.0082672775845396e-07  1.8248039390021889e-07  1.1070000463083286e-07  6.7163313904070043e-08  4.0757311098728488e-08  2.4741579284208984e-08  1.5027766313335542e-08  9.1360539482207640e-09  5.5623028143974535e-09  3.3944135339568895e-09  2.0611536366565787e-09  9.9999999793883987e-01  9.9998927651993186e-01  9.9999315657708721e-01  9.9999162328567848e-01  9.9999194088300569e-01  9.9999169088278972e-01  9.9999156296386760e-01  9.9999141606689224e-01  9.9999123212921304e-01  9.9999103347953477e-01  9.9999077627493949e-01  9.9999044482419375e-01  9.9998998141295647e-01  9.9998930691762211e-01  9.9998828347517987e-01  9.9998668710270577e-01  9.9998414710544281e-01  9.9998005281079516e-01  9.9997339717566625e-01  9.9996252026274002e-01  9.9994468594674879e-01  9.9991538389265044e-01  9.9986717834979089e-01  9.9978781172508657e-01  9.9965708477730530e-01  9.9944172944893828e-01  9.9908698889259073e-01  9.9850281125693607e-01  9.9754130108393069e-01  9.9596017923183555e-01  9.9336433108339728e-01  9.8911418073758250e-01  9.8218673920753330e-01  9.7097694505474685e-01  9.5304514255957962e-01  9.2487732726097804e-01  8.8186805868714402e-01  8.1896905158084221e-01  7.3257877001031868e-01  6.2368099490863294e-01  5.0045081598716590e-01  3.7705277452754599e-01  2.6779460702735913e-01  1.8108853055699162e-01  1.1801715670988824e-01  7.4953953548297855e-02  4.6795624969146521e-02  2.8896240177212224e-02  1.7720593987971048e-02  1.0820729685507603e-02  6.5901087725058673e-03  4.0071004884136233e-03  2.4341213633885506e-03  1.4777306583656515e-03  8.9679050871030485e-04  5.4411561997181506e-04  3.3009079003260407e-04  2.0023521145599610e-04  1.2145801234102191e-04  7.3671408699770865e-05  4.4685228281535741e-05  2.7103433899563236e-05  1.6439247066349502e-05  9.9709844361967359e-06  6.0477458564338977e-06  3.6681671817303060e-06  2.2248746892030012e-06  1.3494718304064408e-06  8.1851268380969651e-07  4.9646966779850030e-07  3.0114086167283285e-07  1.8266817288394717e-07  1.1081109730882138e-07  6.7227826936733580e-08  4.0793497756111090e-08  2.4760565427231563e-08  1.5036478869743631e-08  9.1390087231537973e-09  5.5625851385070748e-09  3.3939619786701441e-09  2.0611536366565791e-09  9.9999999793883987e-01  9.9998819358569813e-01  9.9999298266452263e-01  9.9999072666729605e-01  9.9999153274593378e-01  9.9999095647617497e-01  9.9999100673086527e-01  9.9999074616775485e-01  9.9999060757262648e-01  9.9999037178891481e-01  9.9999011834294871e-01  9.9998977137950629e-01  9.9998930177914891e-01  9.9998861785619075e-01  9.9998758797085152e-01  9.9998598659608962e-01  9.9998344562414043e-01  9.9997935666660764e-01  9.9997271726594295e-01  9.9996187428956851e-01  9.9994410238722164e-01  9.9991490907137592e-01  9.9986688987171013e-01  9.9978784135316801e-01  9.9965765227104075e-01  9.9944318842293600e-01  9.9908989416528893e-01  9.9850803934819399e-01  9.9755027642657235e-01  9.9597522758182044e-01  9.9338902986708677e-01  9.8915329585158629e-01  9.8224509648735880e-01  9.7105675376203959e-01  9.5314222072121091e-01  9.2497821481834608e-01  8.8195106130145895e-01  8.1901118561466646e-01  7.3256667963965472e-01  6.2361927363088354e-01  5.0036050661914677e-01  3.7695949165162979e-01  2.6771566836819660e-01  1.8102949536481924e-01  1.1797633940388616e-01  7.4927110831006560e-02  4.6778508215314006e-02  2.8885537662912363e-02  1.7713979752602398e-02  1.0816672400358428e-02  6.5876307706374641e-03  4.0055912152795921e-03  2.4332036068665246e-03  1.4771731501554983e-03  8.9645204843939123e-04  5.4391021661236649e-04  3.2996616518326562e-04  2.0015960761764784e-04  1.2141215161596851e-04  7.3643591636237600e-05  4.4668356674157352e-05  2.7093201543186206e-05  1.6433041824819954e-05  9.9672218457767288e-06  6.0454648512183249e-06  3.6667848298052828e-06  2.2240374194312758e-06  1.3489651890923594e-06  8.1820659713662012e-07  4.9628524082591520e-07  3.0103024209500821e-07  1.8260234016155819e-07  1.1077245735934683e-07  6.7205714342865710e-08  4.0781429794200333e-08  2.4754551579107769e-08  1.5033983415238191e-08  9.1383509894733639e-09  5.5626505286025169e-09  3.3941394948793230e-09  2.0611536366565795e-09  9.9999999793883965e-01  9.9998870474623702e-01  9.9999303165399345e-01  9.9999117359075573e-01  9.9999168516180437e-01  9.9999131963022336e-01  9.9999124203396539e-01  9.9999106490228995e-01  9.9999088589519447e-01  9.9999067851100409e-01  9.9999041697013413e-01  9.9999008026929770e-01  9.9998961165148437e-01  9.9998893250917220e-01  9.9998790468930820e-01  9.9998630489136608e-01  9.9998376278337808e-01  9.9997966886603540e-01  9.9997301792053250e-01  9.9996215297560009e-01  9.9994434217381256e-01  9.9991508166887344e-01  9.9986694703210854e-01  9.9978770200496136e-01  9.9965718524459446e-01  9.9944218798275131e-01  9.9908803679142344e-01  9.9850479937259939e-01  9.9754478321145490e-01  9.9596609653583867e-01  9.9337430627339429e-01  9.8913076591975846e-01  9.8221321193296973e-01  9.7101613007652499e-01  9.5309709891954120e-01  9.2493674200620768e-01  8.8192334722440380e-01  8.1900525867831220e-01  7.3258428178877655e-01  6.2365443906082829e-01  5.0040254013118901e-01  3.7699855983153974e-01  2.6774668078540537e-01  1.8105179572516047e-01  1.1799137976890751e-01  7.4936851397741672e-02  4.6784661450281637e-02  2.8889362280889782e-02  1.7716335353780706e-02  1.0818114055906396e-02  6.5885101996242300e-03  4.0061263799564322e-03  2.4335288860550513e-03  1.4773706836702601e-03  8.9657194969575929e-04  5.4398297368045650e-04  3.3001030609712789e-04  2.0018638471745325e-04  1.2142839382803133e-04  7.3653443219860005e-05  4.4674331676840899e-05  2.7096825160504042e-05  1.6435239183447036e-05  9.9685541117219116e-06  6.0462723956592762e-06  3.6672741042827757e-06  2.2243336441133043e-06  1.3491443147094498e-06  8.1831469065382229e-07  4.9635024352773504e-07  3.0106910018456239e-07  1.8262532905933271e-07  1.1078580616423751e-07  6.7213203771824776e-08  4.0785371184711668e-08  2.4756387897958898e-08  1.5034648019685250e-08  9.1384600467518445e-09  5.5625869436967454e-09  3.3940775337772118e-09  2.0611536366565795e-09  9.9999999793884009e-01  9.9998846609432379e-01  9.9999302062245399e-01  9.9999095331902599e-01  9.9999163211527176e-01  9.9999113884786028e-01  9.9999114574674430e-01  9.9999091118729166e-01  9.9999076374033746e-01  9.9999053517426040e-01  9.9999028224142905e-01  9.9998993820124105e-01  9.9998947070324695e-01  9.9998878882124975e-01  9.9998776073950824e-01  9.9998616060034928e-01  9.9998362002922192e-01  9.9997952986151084e-01  9.9997288658575856e-01  9.9996203546273366e-01  9.9994424880360677e-01  9.9991503005776727e-01  9.9986696701820255e-01  9.9978784220539796e-01  9.9965752203411218e-01  9.9944284085950896e-01  9.9908919910265137e-01  9.9850679398102149e-01  9.9754813760281480e-01  9.9597159292194448e-01  9.9338291144604263e-01  9.8914332810581951e-01  9.8222989152332785e-01  9.7103573364453521e-01  9.5311672573778794e-01  9.2495221917812698e-01  8.8193061551179575e-01  8.1900221018609309e-01  7.3257197033670607e-01  6.2363669800673971e-01  5.0038406149104098e-01  3.7698273459112475e-01  2.6773474035698980e-01  1.8104347559244419e-01  1.1798588087801536e-01  7.4933333411754177e-02  4.6782456096538409e-02  2.8887998096794092e-02  1.7715497387144591e-02  1.0817602228746170e-02  6.5881982380639071e-03  4.0059367006345190e-03  2.4334136243266461e-03  1.4773007125105477e-03  8.9652948110941128e-04  5.4395720661960583e-04  3.2999467416255999e-04  2.0017690231941874e-04  1.2142264227261159e-04  7.3649954724777587e-05  4.4672215979876062e-05  2.7095542117954352e-05  1.6434461205091921e-05  9.9680824730844820e-06  6.0459865695143863e-06  3.6671009827079412e-06  2.2242288855720732e-06  1.3490810240171489e-06  8.1827655500375134e-07  4.9632736893695320e-07  3.0105548673799001e-07  1.8261733913855438e-07  1.1078123341861438e-07  6.7210704691187690e-08  4.0784116739872745e-08  2.4755852542444270e-08  1.5034489101086961e-08  9.1384577635749239e-09  5.5626175138058367e-09  3.3940974675792268e-09  2.0611536366565804e-09  9.9999999793884009e-01  9.9998857669760788e-01  9.9999302161690296e-01  9.9999106055687470e-01  9.9999164872662083e-01  9.9999122897187931e-01  9.9999118350733363e-01  9.9999098625011518e-01  9.9999081627964614e-01  9.9999060284865160e-01  9.9999034249287788e-01  9.9999000383265468e-01  9.9998953457979267e-01  9.9998885447211827e-01  9.9998782597651381e-01  9.9998622581509122e-01  9.9998368390010961e-01  9.9997959117922552e-01  9.9997294299435668e-01  9.9996208324908109e-01  9.9994428152754533e-01  9.9991503677359206e-01  9.9986692972267355e-01  9.9978773252028541e-01  9.9965729575084772e-01  9.9944242696342611e-01  9.9908847871116291e-01  9.9850556878166352e-01  9.9754610097876184e-01  9.9596833794485029e-01  9.9337802367081851e-01  9.8913659262117770e-01  9.8222157552408729e-01  9.7102680663548935e-01  9.5310881907239930e-01  9.2494719438054396e-01  8.8192983390620272e-01  8.1900586298359046e-01  7.3257891387609408e-01  6.2364498099858234e-01  5.0039184380587776e-01  3.7698897947873788e-01  2.6773926527536690e-01  1.8104654918285609e-01  1.1798787883079923e-01  7.4934599365554924e-02  4.6783244593470823e-02  2.8888484007086986e-02  1.7715795222308768e-02  1.0817783828739873e-02  6.5883088738811473e-03  4.0060039062138472e-03  2.4334544654360931e-03  1.4773254930999982e-03  8.9654452327950663e-04  5.4396633106855701e-04  3.3000020990714201e-04  2.0018026004826038e-04  1.2142467888848252e-04  7.3651189960368484e-05  4.4672965089172398e-05  2.7095996388036942e-05  1.6434736626049548e-05  9.9682494204015756e-06  6.0460877188269982e-06  3.6671622229356675e-06  2.2242659175004232e-06  1.3491033714508654e-06  8.1828999412553334e-07  4.9633540289669439e-07  3.0106023963317337e-07  1.8262009899900182e-07  1.1078278285138930e-07  6.7211523055963212e-08  4.0784503331595930e-08  2.4755999360001830e-08  1.5034520376230642e-08  9.1384489442779555e-09  5.5626057542118035e-09  3.3940914164599494e-09  2.0611536366565787e-09  9.9999999793884009e-01  9.9998852568391339e-01  9.9999302255355627e-01  9.9999100896473481e-01  9.9999164447489752e-01  9.9999118417687227e-01  9.9999116952172318e-01  9.9999094923283416e-01  9.9999079427221793e-01  9.9999057052376417e-01  9.9999031587831499e-01  9.9998997332113659e-01  9.9998950579402501e-01  9.9998882444186821e-01  9.9998779654100212e-01  9.9998619644908127e-01  9.9998365554808855e-01  9.9997956446553216e-01  9.9997291938304900e-01  9.9996206503246365e-01  9.9994427273611897e-01  9.9991504405236253e-01  9.9986696362638661e-01  9.9978780943451862e-01  9.9965744176422699e-01  9.9944268563247662e-01  9.9908892377307212e-01  9.9850631832151993e-01  9.9754732133578405e-01  9.9597021811344344e-01  9.9338070344607854e-01  9.8914004920027776e-01  9.8222551168292760e-01  9.7103061740041452e-01  9.5311170772380016e-01  9.2494843993824971e-01  8.8192910392652579e-01  8.1900339284368118e-01  7.3257541746457044e-01  6.2364132257395055e-01  5.0038867430995282e-01  3.7698656568251848e-01  2.6773757205681958e-01  1.8104542287043271e-01  1.1798715650607509e-01  7.4934145123221566e-02  4.6782963250616025e-02  2.8888311101926988e-02  1.7715689444447073e-02  1.0817719425138799e-02  6.5882696430895008e-03  4.0059801025646123e-03  2.4334399925626661e-03  1.4773167193170734e-03  8.9653919467078374e-04  5.4396310056292632e-04  3.2999824935951244e-04  2.0017907118607804e-04  1.2142395770805202e-04  7.3650752598662536e-05  4.4672699856601520e-05  2.7095835558012022e-05  1.6434639128539181e-05  9.9681903319247968e-06  6.0460519305152903e-06  3.6671405662242240e-06  2.2242528334386300e-06  1.3490954874267987e-06  8.1828526504262575e-07  4.9633258844836987e-07  3.0105858780610117e-07  1.8261915336324031e-07  1.1078226509891927e-07  6.7211261282700157e-08  4.0784388943140946e-08  2.4755962454254834e-08  1.5034516913891471e-08  9.1384542703041959e-09  5.5626097361729775e-09  3.3940931890873974e-09  2.0611536366565787e-09  9.9999999793883876e-01  9.9998854914233470e-01  9.9999302166051329e-01  9.9999103352297902e-01  9.9999164501592575e-01  9.9999120630621130e-01  9.9999117428158091e-01  9.9999096760225636e-01  9.9999080317566713e-01  9.9999058614796787e-01  9.9999032743958804e-01  9.9998998762153135e-01  9.9998951865837560e-01  9.9998883820549700e-01  9.9998780973756252e-01  9.9998620961578810e-01  9.9998366799872196e-01  9.9997957589539432e-01  9.9997292884772182e-01  9.9996207111301527e