<?xml version="1.0"?>
<VTKFile type="UnstructuredGrid"  version="0.1"  >
<UnstructuredGrid>
<Piece  NumberOfPoints="3281" NumberOfCells="6400">
<Points>
<DataArray  type="Float64"  NumberOfComponents="3"  format="ascii">0 0 0  0.025 0 0  0.05 0 0  0.075 0 0  0.1 0 0  0.125 0 0  0.15 0 0  0.175 0 0  0.2 0 0  0.225 0 0  0.25 0 0  0.275 0 0  0.3 0 0  0.325 0 0  0.35 0 0  0.375 0 0  0.4 0 0  0.425 0 0  0.45 0 0  0.475 0 0  0.5 0 0  0.525 0 0  0.55 0 0  0.575 0 0  0.6 0 0  0.625 0 0  0.65 0 0  0.675 0 0  0.7 0 0  0.725 0 0  0.75 0 0  0.775 0 0  0.8 0 0  0.825 0 0  0.85 0 0  0.875 0 0  0.9 0 0  0.925 0 0  0.95 0 0  0.975 0 0  1 0 0  0 0.025 0  0.025 0.025 0  0.05 0.025 0  0.075 0.025 0  0.1 0.025 0  0.125 0.025 0  0.15 0.025 0  0.175 0.025 0  0.2 0.025 0  0.225 0.025 0  0.25 0.025 0  0.275 0.025 0  0.3 0.025 0  0.325 0.025 0  0.35 0.025 0  0.375 0.025 0  0.4 0.025 0  0.425 0.025 0  0.45 0.025 0  0.475 0.025 0  0.5 0.025 0  0.525 0.025 0  0.55 0.025 0  0.575 0.025 0  0.6 0.025 0  0.625 0.025 0  0.65 0.025 0  0.675 0.025 0  0.7 0.025 0  0.725 0.025 0  0.75 0.025 0  0.775 0.025 0  0.8 0.025 0  0.825 0.025 0  0.85 0.025 0  0.875 0.025 0  0.9 0.025 0  0.925 0.025 0  0.95 0.025 0  0.975 0.025 0  1 0.025 0  0 0.05 0  0.025 0.05 0  0.05 0.05 0  0.075 0.05 0  0.1 0.05 0  0.125 0.05 0  0.15 0.05 0  0.175 0.05 0  0.2 0.05 0  0.225 0.05 0  0.25 0.05 0  0.275 0.05 0  0.3 0.05 0  0.325 0.05 0  0.35 0.05 0  0.375 0.05 0  0.4 0.05 0  0.425 0.05 0  0.45 0.05 0  0.475 0.05 0  0.5 0.05 0  0.525 0.05 0  0.55 0.05 0  0.575 0.05 0  0.6 0.05 0  0.625 0.05 0  0.65 0.05 0  0.675 0.05 0  0.7 0.05 0  0.725 0.05 0  0.75 0.05 0  0.775 0.05 0  0.8 0.05 0  0.825 0.05 0  0.85 0.05 0  0.875 0.05 0  0.9 0.05 0  0.925 0.05 0  0.95 0.05 0  0.975 0.05 0  1 0.05 0  0 0.075 0  0.025 0.075 0  0.05 0.075 0  0.075 0.075 0  0.1 0.075 0  0.125 0.075 0  0.15 0.075 0  0.175 0.075 0  0.2 0.075 0  0.225 0.075 0  0.25 0.075 0  0.275 0.075 0  0.3 0.075 0  0.325 0.075 0  0.35 0.075 0  0.375 0.075 0  0.4 0.075 0  0.425 0.075 0  0.45 0.075 0  0.475 0.075 0  0.5 0.075 0  0.525 0.075 0  0.55 0.075 0  0.575 0.075 0  0.6 0.075 0  0.625 0.075 0  0.65 0.075 0  0.675 0.075 0  0.7 0.075 0  0.725 0.075 0  0.75 0.075 0  0.775 0.075 0  0.8 0.075 0  0.825 0.075 0  0.85 0.075 0  0.875 0.075 0  0.9 0.075 0  0.925 0.075 0  0.95 0.075 0  0.975 0.075 0  1 0.075 0  0 0.1 0  0.025 0.1 0  0.05 0.1 0  0.075 0.1 0  0.1 0.1 0  0.125 0.1 0  0.15 0.1 0  0.175 0.1 0  0.2 0.1 0  0.225 0.1 0  0.25 0.1 0  0.275 0.1 0  0.3 0.1 0  0.325 0.1 0  0.35 0.1 0  0.375 0.1 0  0.4 0.1 0  0.425 0.1 0  0.45 0.1 0  0.475 0.1 0  0.5 0.1 0  0.525 0.1 0  0.55 0.1 0  0.575 0.1 0  0.6 0.1 0  0.625 0.1 0  0.65 0.1 0  0.675 0.1 0  0.7 0.1 0  0.725 0.1 0  0.75 0.1 0  0.775 0.1 0  0.8 0.1 0  0.825 0.1 0  0.85 0.1 0  0.875 0.1 0  0.9 0.1 0  0.925 0.1 0  0.95 0.1 0  0.975 0.1 0  1 0.1 0  0 0.125 0  0.025 0.125 0  0.05 0.125 0  0.075 0.125 0  0.1 0.125 0  0.125 0.125 0  0.15 0.125 0  0.175 0.125 0  0.2 0.125 0  0.225 0.125 0  0.25 0.125 0  0.275 0.125 0  0.3 0.125 0  0.325 0.125 0  0.35 0.125 0  0.375 0.125 0  0.4 0.125 0  0.425 0.125 0  0.45 0.125 0  0.475 0.125 0  0.5 0.125 0  0.525 0.125 0  0.55 0.125 0  0.575 0.125 0  0.6 0.125 0  0.625 0.125 0  0.65 0.125 0  0.675 0.125 0  0.7 0.125 0  0.725 0.125 0  0.75 0.125 0  0.775 0.125 0  0.8 0.125 0  0.825 0.125 0  0.85 0.125 0  0.875 0.125 0  0.9 0.125 0  0.925 0.125 0  0.95 0.125 0  0.975 0.125 0  1 0.125 0  0 0.15 0  0.025 0.15 0  0.05 0.15 0  0.075 0.15 0  0.1 0.15 0  0.125 0.15 0  0.15 0.15 0  0.175 0.15 0  0.2 0.15 0  0.225 0.15 0  0.25 0.15 0  0.275 0.15 0  0.3 0.15 0  0.325 0.15 0  0.35 0.15 0  0.375 0.15 0  0.4 0.15 0  0.425 0.15 0  0.45 0.15 0  0.475 0.15 0  0.5 0.15 0  0.525 0.15 0  0.55 0.15 0  0.575 0.15 0  0.6 0.15 0  0.625 0.15 0  0.65 0.15 0  0.675 0.15 0  0.7 0.15 0  0.725 0.15 0  0.75 0.15 0  0.775 0.15 0  0.8 0.15 0  0.825 0.15 0  0.85 0.15 0  0.875 0.15 0  0.9 0.15 0  0.925 0.15 0  0.95 0.15 0  0.975 0.15 0  1 0.15 0  0 0.175 0  0.025 0.175 0  0.05 0.175 0  0.075 0.175 0  0.1 0.175 0  0.125 0.175 0  0.15 0.175 0  0.175 0.175 0  0.2 0.175 0  0.225 0.175 0  0.25 0.175 0  0.275 0.175 0  0.3 0.175 0  0.325 0.175 0  0.35 0.175 0  0.375 0.175 0  0.4 0.175 0  0.425 0.175 0  0.45 0.175 0  0.475 0.175 0  0.5 0.175 0  0.525 0.175 0  0.55 0.175 0  0.575 0.175 0  0.6 0.175 0  0.625 0.175 0  0.65 0.175 0  0.675 0.175 0  0.7 0.175 0  0.725 0.175 0  0.75 0.175 0  0.775 0.175 0  0.8 0.175 0  0.825 0.175 0  0.85 0.175 0  0.875 0.175 0  0.9 0.175 0  0.925 0.175 0  0.95 0.175 0  0.975 0.175 0  1 0.175 0  0 0.2 0  0.025 0.2 0  0.05 0.2 0  0.075 0.2 0  0.1 0.2 0  0.125 0.2 0  0.15 0.2 0  0.175 0.2 0  0.2 0.2 0  0.225 0.2 0  0.25 0.2 0  0.275 0.2 0  0.3 0.2 0  0.325 0.2 0  0.35 0.2 0  0.375 0.2 0  0.4 0.2 0  0.425 0.2 0  0.45 0.2 0  0.475 0.2 0  0.5 0.2 0  0.525 0.2 0  0.55 0.2 0  0.575 0.2 0  0.6 0.2 0  0.625 0.2 0  0.65 0.2 0  0.675 0.2 0  0.7 0.2 0  0.725 0.2 0  0.75 0.2 0  0.775 0.2 0  0.8 0.2 0  0.825 0.2 0  0.85 0.2 0  0.875 0.2 0  0.9 0.2 0  0.925 0.2 0  0.95 0.2 0  0.975 0.2 0  1 0.2 0  0 0.225 0  0.025 0.225 0  0.05 0.225 0  0.075 0.225 0  0.1 0.225 0  0.125 0.225 0  0.15 0.225 0  0.175 0.225 0  0.2 0.225 0  0.225 0.225 0  0.25 0.225 0  0.275 0.225 0  0.3 0.225 0  0.325 0.225 0  0.35 0.225 0  0.375 0.225 0  0.4 0.225 0  0.425 0.225 0  0.45 0.225 0  0.475 0.225 0  0.5 0.225 0  0.525 0.225 0  0.55 0.225 0  0.575 0.225 0  0.6 0.225 0  0.625 0.225 0  0.65 0.225 0  0.675 0.225 0  0.7 0.225 0  0.725 0.225 0  0.75 0.225 0  0.775 0.225 0  0.8 0.225 0  0.825 0.225 0  0.85 0.225 0  0.875 0.225 0  0.9 0.225 0  0.925 0.225 0  0.95 0.225 0  0.975 0.225 0  1 0.225 0  0 0.25 0  0.025 0.25 0  0.05 0.25 0  0.075 0.25 0  0.1 0.25 0  0.125 0.25 0  0.15 0.25 0  0.175 0.25 0  0.2 0.25 0  0.225 0.25 0  0.25 0.25 0  0.275 0.25 0  0.3 0.25 0  0.325 0.25 0  0.35 0.25 0  0.375 0.25 0  0.4 0.25 0  0.425 0.25 0  0.45 0.25 0  0.475 0.25 0  0.5 0.25 0  0.525 0.25 0  0.55 0.25 0  0.575 0.25 0  0.6 0.25 0  0.625 0.25 0  0.65 0.25 0  0.675 0.25 0  0.7 0.25 0  0.725 0.25 0  0.75 0.25 0  0.775 0.25 0  0.8 0.25 0  0.825 0.25 0  0.85 0.25 0  0.875 0.25 0  0.9 0.25 0  0.925 0.25 0  0.95 0.25 0  0.975 0.25 0  1 0.25 0  0 0.275 0  0.025 0.275 0  0.05 0.275 0  0.075 0.275 0  0.1 0.275 0  0.125 0.275 0  0.15 0.275 0  0.175 0.275 0  0.2 0.275 0  0.225 0.275 0  0.25 0.275 0  0.275 0.275 0  0.3 0.275 0  0.325 0.275 0  0.35 0.275 0  0.375 0.275 0  0.4 0.275 0  0.425 0.275 0  0.45 0.275 0  0.475 0.275 0  0.5 0.275 0  0.525 0.275 0  0.55 0.275 0  0.575 0.275 0  0.6 0.275 0  0.625 0.275 0  0.65 0.275 0  0.675 0.275 0  0.7 0.275 0  0.725 0.275 0  0.75 0.275 0  0.775 0.275 0  0.8 0.275 0  0.825 0.275 0  0.85 0.275 0  0.875 0.275 0  0.9 0.275 0  0.925 0.275 0  0.95 0.275 0  0.975 0.275 0  1 0.275 0  0 0.3 0  0.025 0.3 0  0.05 0.3 0  0.075 0.3 0  0.1 0.3 0  0.125 0.3 0  0.15 0.3 0  0.175 0.3 0  0.2 0.3 0  0.225 0.3 0  0.25 0.3 0  0.275 0.3 0  0.3 0.3 0  0.325 0.3 0  0.35 0.3 0  0.375 0.3 0  0.4 0.3 0  0.425 0.3 0  0.45 0.3 0  0.475 0.3 0  0.5 0.3 0  0.525 0.3 0  0.55 0.3 0  0.575 0.3 0  0.6 0.3 0  0.625 0.3 0  0.65 0.3 0  0.675 0.3 0  0.7 0.3 0  0.725 0.3 0  0.75 0.3 0  0.775 0.3 0  0.8 0.3 0  0.825 0.3 0  0.85 0.3 0  0.875 0.3 0  0.9 0.3 0  0.925 0.3 0  0.95 0.3 0  0.975 0.3 0  1 0.3 0  0 0.325 0  0.025 0.325 0  0.05 0.325 0  0.075 0.325 0  0.1 0.325 0  0.125 0.325 0  0.15 0.325 0  0.175 0.325 0  0.2 0.325 0  0.225 0.325 0  0.25 0.325 0  0.275 0.325 0  0.3 0.325 0  0.325 0.325 0  0.35 0.325 0  0.375 0.325 0  0.4 0.325 0  0.425 0.325 0  0.45 0.325 0  0.475 0.325 0  0.5 0.325 0  0.525 0.325 0  0.55 0.325 0  0.575 0.325 0  0.6 0.325 0  0.625 0.325 0  0.65 0.325 0  0.675 0.325 0  0.7 0.325 0  0.725 0.325 0  0.75 0.325 0  0.775 0.325 0  0.8 0.325 0  0.825 0.325 0  0.85 0.325 0  0.875 0.325 0  0.9 0.325 0  0.925 0.325 0  0.95 0.325 0  0.975 0.325 0  1 0.325 0  0 0.35 0  0.025 0.35 0  0.05 0.35 0  0.075 0.35 0  0.1 0.35 0  0.125 0.35 0  0.15 0.35 0  0.175 0.35 0  0.2 0.35 0  0.225 0.35 0  0.25 0.35 0  0.275 0.35 0  0.3 0.35 0  0.325 0.35 0  0.35 0.35 0  0.375 0.35 0  0.4 0.35 0  0.425 0.35 0  0.45 0.35 0  0.475 0.35 0  0.5 0.35 0  0.525 0.35 0  0.55 0.35 0  0.575 0.35 0  0.6 0.35 0  0.625 0.35 0  0.65 0.35 0  0.675 0.35 0  0.7 0.35 0  0.725 0.35 0  0.75 0.35 0  0.775 0.35 0  0.8 0.35 0  0.825 0.35 0  0.85 0.35 0  0.875 0.35 0  0.9 0.35 0  0.925 0.35 0  0.95 0.35 0  0.975 0.35 0  1 0.35 0  0 0.375 0  0.025 0.375 0  0.05 0.375 0  0.075 0.375 0  0.1 0.375 0  0.125 0.375 0  0.15 0.375 0  0.175 0.375 0  0.2 0.375 0  0.225 0.375 0  0.25 0.375 0  0.275 0.375 0  0.3 0.375 0  0.325 0.375 0  0.35 0.375 0  0.375 0.375 0  0.4 0.375 0  0.425 0.375 0  0.45 0.375 0  0.475 0.375 0  0.5 0.375 0  0.525 0.375 0  0.55 0.375 0  0.575 0.375 0  0.6 0.375 0  0.625 0.375 0  0.65 0.375 0  0.675 0.375 0  0.7 0.375 0  0.725 0.375 0  0.75 0.375 0  0.775 0.375 0  0.8 0.375 0  0.825 0.375 0  0.85 0.375 0  0.875 0.375 0  0.9 0.375 0  0.925 0.375 0  0.95 0.375 0  0.975 0.375 0  1 0.375 0  0 0.4 0  0.025 0.4 0  0.05 0.4 0  0.075 0.4 0  0.1 0.4 0  0.125 0.4 0  0.15 0.4 0  0.175 0.4 0  0.2 0.4 0  0.225 0.4 0  0.25 0.4 0  0.275 0.4 0  0.3 0.4 0  0.325 0.4 0  0.35 0.4 0  0.375 0.4 0  0.4 0.4 0  0.425 0.4 0  0.45 0.4 0  0.475 0.4 0  0.5 0.4 0  0.525 0.4 0  0.55 0.4 0  0.575 0.4 0  0.6 0.4 0  0.625 0.4 0  0.65 0.4 0  0.675 0.4 0  0.7 0.4 0  0.725 0.4 0  0.75 0.4 0  0.775 0.4 0  0.8 0.4 0  0.825 0.4 0  0.85 0.4 0  0.875 0.4 0  0.9 0.4 0  0.925 0.4 0  0.95 0.4 0  0.975 0.4 0  1 0.4 0  0 0.425 0  0.025 0.425 0  0.05 0.425 0  0.075 0.425 0  0.1 0.425 0  0.125 0.425 0  0.15 0.425 0  0.175 0.425 0  0.2 0.425 0  0.225 0.425 0  0.25 0.425 0  0.275 0.425 0  0.3 0.425 0  0.325 0.425 0  0.35 0.425 0  0.375 0.425 0  0.4 0.425 0  0.425 0.425 0  0.45 0.425 0  0.475 0.425 0  0.5 0.425 0  0.525 0.425 0  0.55 0.425 0  0.575 0.425 0  0.6 0.425 0  0.625 0.425 0  0.65 0.425 0  0.675 0.425 0  0.7 0.425 0  0.725 0.425 0  0.75 0.425 0  0.775 0.425 0  0.8 0.425 0  0.825 0.425 0  0.85 0.425 0  0.875 0.425 0  0.9 0.425 0  0.925 0.425 0  0.95 0.425 0  0.975 0.425 0  1 0.425 0  0 0.45 0  0.02
[...]
<PointData  Scalars="f_16"> 
<DataArray  type="Float64"  Name="f_16"  format="ascii">1.0000000000000000e+00  0.0000000000000000e+00  0.0000000000000000e+00  0.0000000000000000e+00  0.0000000000000000e+00  0.0000000000000000e+00  0.0000000000000000e+00  0.0000000000000000e+00  0.0000000000000000e+00  0.0000000000000000e+00  0.0000000000000000e+00  0.0000000000000000e+00  0.0000000000000000e+00  0.0000000000000000e+00  0.0000000000000000e+00  0.0000000000000000e+00  0.0000000000000000e+00  0.0000000000000000e+00  0.0000000000000000e+00  0.0000000000000000e+00  0.0000000000000000e+00  0.0000000000000000e+00  0.0000000000000000e+00  0.0000000000000000e+00  0.0000000000000000e+00  0.0000000000000000e+00  0.0000000000000000e+00  0.0000000000000000e+00  0.0000000000000000e+00  0.0000000000000000e+00  0.0000000000000000e+00  0.0000000000000000e+00  0.0000000000000000e+00  0.0000000000000000e+00  0.0000000000000000e+00  0.0000000000000000e+00  0.0000000000000000e+00  0.0000000000000000e+00  0.0000000000000000e+00  0.0000000000000000e+00  0.0000000000000000e+00  1.0000000000000000e+00  1.5239796600082194e+00  1.3744326809230472e+00  1.4311915313717418e+00  1.4118377878880275e+00  1.4180313883523570e+00  1.4161710972684833e+00  1.4166632446555607e+00  1.4164174730550383e+00  1.4165777087405462e+00  1.4171580736021177e+00  1.4173877067462808e+00  1.4150908561383178e+00  1.4105776334092615e+00  1.4125485842310452e+00  1.4341534001261169e+00  1.4689920943763866e+00  1.4642790904729122e+00  1.3345038693609106e+00  1.0318720253090918e+00  6.1505962236281497e-01  2.3006603428669176e-01  1.6236621721266850e-03  -5.7888799770484570e-02  -3.0259518169216720e-02  4.5704357546680021e-04  6.6807699827132827e-03  1.5846175925042644e-03  -1.0372481540159367e-03  -4.1223751146910397e-04  1.7301172085474269e-04  7.0898155135189835e-05  -3.5272112579048802e-05  -7.8386441827879314e-06  7.1739870630515509e-06  -1.8726344057430613e-07  -1.0598012871704454e-06  2.8742532131955906e-07  5.8508930578801425e-08  -3.3584420630041357e-08  0.0000000000000000e+00  1.0000000000000000e+00  7.4539614916940478e-01  8.7092077411029467e-01  8.0859025197175338e-01  8.3602544793599254e-01  8.2490649967267116e-01  8.2913175881102452e-01  8.2766350576480152e-01  8.2813984411856167e-01  8.2775713446604660e-01  8.2773975517162224e-01  8.2857745554868889e-01  8.2999324847052569e-01  8.2850752931600125e-01  8.2074432990874713e-01  8.1355175863444806e-01  8.2815496771242858e-01  8.7874929103299770e-01  9.3422906289182672e-01  9.1296255321107422e-01  7.4574333562946260e-01  4.5734333270178973e-01  1.6761559709225554e-01  -7.0834554551073292e-03  -4.7671908193499618e-02  -2.1394388215980161e-02  2.6017874717000227e-03  5.3731617223134300e-03  6.1578524798079908e-04  -9.6718497505745248e-04  -1.8294613620082424e-04  1.7553592342666640e-04  2.3068709934233366e-05  -3.2799619188744740e-05  1.1774158551509474e-06  5.1077866506645144e-06  -1.3410445911618282e-06  -3.9726212866193067e-07  2.5966778006736605e-07  -1.7816734039471889e-08  0.0000000000000000e+00  1.0000000000000000e+00  1.1186966890042715e+00  1.0399196126845529e+00  1.0879952765827181e+00  1.0624063872539062e+00  1.0747453448597408e+00  1.0692262712686902e+00  1.0715382722591791e+00  1.0706663601220718e+00  1.0710318124002818e+00  1.0707479825005914e+00  1.0705656003404718e+00  1.0708899091885131e+00  1.0720175996310735e+00  1.0721292359395369e+00  1.0690469254127455e+00  1.0662464318552043e+00  1.0731389263878386e+00  1.0865109044568069e+00  1.0658059233972199e+00  9.4414977457153559e-01  6.9121360099731866e-01  3.6881635400895979e-01  1.0035649189801106e-01  -3.0540655672762502e-02  -4.1932689103486916e-02  -1.1609477341289800e-02  5.1632092063405039e-03  3.7541109281161666e-03  -3.5567717531311840e-04  -7.4969322963818765e-04  3.9407648948812396e-05  1.3180911003269605e-04  -1.8116854572490812e-05  -1.9585432107940266e-05  6.4787231199055638e-06  1.6186445709224948e-06  -1.3082020153314027e-06  1.1713067438405161e-07  8.7769560412026912e-08  0.0000000000000000e+00  1.0000000000000000e+00  9.4643204809151471e-01  9.8963882437518069e-01  9.5855459612937199e-01  9.7783150037252065e-01  9.6712436768535193e-01  9.7258406960800703e-01  9.6998399313731476e-01  9.7114436607390653e-01  9.7065740981221771e-01  9.7086192733213283e-01  9.7076656345906254e-01  9.7088501460217147e-01  9.7112875221984019e-01  9.7070471324823049e-01  9.6806700352020847e-01  9.6535768162269564e-01  9.7359359561246472e-01  1.0050022081960841e+00  1.0455090571371155e+00  1.0343591002206702e+00  8.9590138936212937e-01  6.1771869845835381e-01  2.9167562364418098e-01  5.0668598674282854e-02  -4.3060776481282703e-02  -3.3987963587648239e-02  -3.9898667223339001e-03  5.9580755489762266e-03  2.0902613102201299e-03  -8.5125228978209474e-04  -4.3636035417722303e-04  1.5217033306964855e-04  6.4692988749460247e-05  -3.2994335226728940e-05  -4.8346780698587301e-06  6.0229536916708937e-06  -7.0862258307665781e-07  -5.6161832564523818e-07  1.6539180828838763e-07  0.0000000000000000e+00  1.0000000000000000e+00  1.0235252753136121e+00  1.0017484351680990e+00  1.0196927702994625e+00  1.0070324039699974e+00  1.0149675413273205e+00  1.0104339720806688e+00  1.0128339507306985e+00  1.0116441682705652e+00  1.0122196434334236e+00  1.0119576128974208e+00  1.0119681822058120e+00  1.0118319461649916e+00  1.0122365120488603e+00  1.0132943287322442e+00  1.0132817754866126e+00  1.0088247370901433e+00  1.0012685834699326e+00  1.0031552674263624e+00  1.0272559126609830e+00  1.0540604937953599e+00  1.0151168933574459e+00  8.3892045566052198e-01  5.3499849099532737e-01  2.1642363764333045e-01  1.1154386139574562e-02  -4.7042538777669445e-02  -2.4282148989241921e-02  1.5008632323322145e-03  5.3227981460914411e-03  6.3467696010521531e-04  -9.1838156297075119e-04  -1.3234679448886753e-04  1.6202795641507572e-04  5.2296896181688843e-06  -2.6469906436403025e-05  4.3596983278084891e-06  2.7119769615781629e-06  -1.1411055541908458e-06  -1.2477169126439985e-08  0.0000000000000000e+00  1.0000000000000000e+00  9.8990058384090029e-01  1.0002320212822997e+00  9.9068853926662626e-01  9.9822171788955971e-01  9.9297026610275740e-01  9.9628869998982272e-01  9.9435327627778436e-01  9.9540081581990525e-01  9.9486047240613373e-01  9.9515770048767993e-01  9.9506112327905105e-01  9.9500391752872008e-01  9.9473143691318255e-01  9.9488051619418738e-01  9.9588254876612758e-01  9.9644770829516127e-01  9.9404280519509269e-01  9.9156191178288733e-01  1.0021743228121966e+00  1.0337855633830171e+00  1.0550402450864393e+00  9.8890706915022630e-01  7.7455694898187588e-01  4.5006237011275396e-01  1.4769180408451729e-01  -1.7820752069826164e-02  -4.4545281959857908e-02  -1.4513495325891758e-02  4.7263269899174972e-03  3.8481835490768663e-03  -3.7604582588328524e-04  -6.9929248567889718e-04  7.6984083890331361e-05  1.0785749899688866e-04  -2.6873248469732119e-05  -1.1177818341851565e-05  6.0902089976255220e-06  -3.8360540877560320e-08  -4.9277610169142801e-07  0.0000000000000000e+00  1.0000000000000000e+00  1.0042569052998072e+00  9.9957675218032693e-01  1.0043398098484462e+00  1.0001867844805603e+00  1.0033730192381214e+00  1.0011682359135605e+00  1.0025715403896509e+00  1.0017420698321109e+00  1.0021970328189249e+00  1.0019449686016340e+00  1.0020876913857069e+00  1.0020683888122779e+00  1.0020624538604428e+00  1.0019491069336124e+00  1.0021303490117075e+00  1.0025288473068674e+00  1.0012265235765923e+00  9.9622295929283322e-01  9.9306328296706514e-01  1.0069999809768295e+00  1.0410538327976520e+00  1.0511240608021437e+00  9.5317733117903758e-01  7.0163596830358621e-01  3.6474462215113129e-01  8.7732624400269632e-02  -3.6280716155031714e-02  -3.7423270773117148e-02  -5.9997826843715546e-03  5.8446967794036899e-03  2.1086567595130852e-03  -8.5763088019294366e-04  -3.6412137735638103e-04  1.6089536725127126e-04  3.7349525317343869e-05  -3.0021680668554970e-05  1.0580049381545594e-06  3.2804492209813794e-06  -6.7720108487708998e-07  0.0000000000000000e+00  1.0000000000000000e+00  9.9823059909804956e-01  1.0002754031942029e+00  9.9801714155380095e-01  1.0001693119470934e+00  9.9836707704524175e-01  9.9972299994778024e-01  9.9878884776770849e-01  9.9938645524971481e-01  9.9903028462051746e-01  9.9923118941110001e-01  9.9911889996845304e-01  9.9918036185614156e-01  9.9913611274054914e-01  9.9905851749060515e-01  9.9906742325425368e-01  9.9972166448830402e-01  1.0007682911987417e+00  9.9972447336286374e-01  9.9488266282500593e-01  9.9390909288075124e-01  1.0128776568221263e+00  1.0479516580984594e+00  1.0418907634248205e+00  9.0773442845572294e-01  6.2136735575499502e-01  2.8157304394860055e-01  3.8177667722586510e-02  -4.5063703278128454e-02  -2.7668296528214700e-02  3.8131668379718010e-04  5.3179907633455793e-03  5.7917923151503152e-04  -8.7732759892100135e-04  -6.2800644096221300e-05  1.4128101948763112e-04  -1.2587038786480565e-05  -1.6528647616786036e-05  4.9263268073676183e-06  4.5914164053340130e-07  0.0000000000000000e+00  1.0000000000000000e+00  1.0007284014826576e+00  9.9985974790854293e-01  1.0008860786777467e+00  9.9982703235136416e-01  1.0007882896301328e+00  1.0000064122614141e+00  1.0005865956141808e+00  1.0001883429830671e+00  1.0004435589658400e+00  1.0002874263106001e+00  1.0003748293474097e+00  1.0003366355142147e+00  1.0003919404264434e+00  1.0003582122696029e+00  1.0001852444057049e+00  1.0000367252832087e+00  1.0004941854385081e+00  1.0011206866585360e+00  9.9917998599541080e-01  9.9390214744988115e-01  9.9544665771712326e-01  1.0196150282281331e+00  1.0533232457302830e+00  1.0258589279646821e+00  8.5214419184368040e-01  5.3546608509500415e-01  2.0330660188860855e-01  1.2717632629447674e-04  -4.5640961783308884e-02  -1.7225099830598927e-02  4.2354307699926800e-03  3.7945332781992324e-03  -4.3969993247023915e-04  -6.0665118846121228e-04  1.1411951262626202e-04  7.1645153729516119e-05  -2.8107535837026538e-05  -2.4803438300427076e-06  2.6635508771109463e-06  0.0000000000000000e+00  1.0000000000000000e+00  9.9970179876681164e-01  1.0000631852488693e+00  9.9961275709425357e-01  1.0001114351261267e+00  9.9962391352876923e-01  1.0000505289032149e+00  9.9971091302618353e-01  9.9996025921759613e-01  9.9979030533271096e-01  9.9990083522224804e-01  9.9983038042613415e-01  9.9986082432658052e-01  9.9984327857931643e-01  9.9989294097180070e-01  9.9990209407392938e-01  9.9981002363631732e-01  9.9984734152868526e-01  1.0005457343493755e+00  1.0010923229600468e+00  9.9845159056612354e-01  9.9312545189626522e-01  9.9793144643504683e-01  1.0271363853700566e+00  1.0562058264989356e+00  1.0016808579157410e+00  7.8636501174483209e-01  4.4614580305661278e-01  1.3265287734299264e-01  -2.6023270096519703e-02  -3.9994687920199931e-02  -7.7752861531140104e-03  5.6557179676056356e-03  1.9620493288347784e-03  -8.5883937834400122e-04  -2.5170010959360312e-04  1.5169044172589431e-04  7.4115350510148954e-06  -1.8470860179741123e-05  2.5293397710494299e-06  0.0000000000000000e+00  1.0000000000000000e+00  1.0001218474172886e+00  9.9997360578851457e-01  1.0001657589105319e+00  9.9993963758193594e-01  1.0001762914273367e+00  9.9995450545298237e-01  1.0001432312280172e+00  9.9999541781087509e-01  1.0001025889401363e+00  1.0000297031971068e+00  1.0000791128181581e+00  1.0000495834190579e+00  1.0000601855057158e+00  1.0000495717790052e+00  1.0000678092499575e+00  1.0000208520828837e+00  9.9985793397549516e-01  9.9991011488573744e-01  1.0006889531423733e+00  1.0009862304605801e+00  9.9757842076219649e-01  9.9260385593127554e-01  1.0014448770992395e+00  1.0351023862130302e+00  1.0554246225344166e+00  9.6809889956206563e-01  7.1088090737769782e-01  3.5610724153096468e-01  7.2060336573103539e-02  -4.0689342787193099e-02  -3.0439489920140818e-02  -5.4514459028094479e-04  5.1533001655791662e-03  3.9888603671943700e-04  -7.8430221265764200e-04  1.9460442540253981e-05  9.7848119649116070e-05  -2.0095516944693286e-05  -4.2839399609008719e-06  0.0000000000000000e+00  1.0000000000000000e+00  9.9995016625931699e-01  1.0000105093655747e+00  9.9993032154254258e-01  1.0000296078361712e+00  9.9991905692911409e-01  1.0000295380326165e+00  9.9992940851529688e-01  1.0000128273717976e+00  9.9994853393645633e-01  9.9999461588792871e-01  9.9996262086169485e-01  9.9998366528108729e-01  9.9997022491627052e-01  9.9997652049557251e-01  9.9998768339485566e-01  1.0000254662623986e+00  9.9998937480132544e-01  9.9983371872041527e-01  9.9996786706156982e-01  1.0008379988023324e+00  1.0007961803203012e+00  9.9660704853220994e-01  9.9247411008774677e-01  1.0060671533619887e+00  1.0430120016750370e+00  1.0496248413932272e+00  9.2402347037035781e-01  6.2678219870846053e-01  2.6844196815746546e-01  2.3487038213208859e-02  -4.5132012289648825e-02  -1.9378398005104304e-02  3.8351903441857758e-03  3.5128137587383174e-03  -5.4565742719343282e-04  -4.4851468370375969e-04  1.2931691296383933e-04  2.6491781134763082e-05  -1.4018790060696565e-05  0.0000000000000000e+00  1.0000000000000000e+00  1.0000204363067917e+00  9.9999592187661179e-01  1.0000288676647067e+00  9.9998642831032536e-01  1.0000363554822784e+00  9.9998336658659193e-01  1.0000343478276006e+00  9.9998933222210074e-01  1.0000261391706824e+00  9.9999822961112428e-01  1.0000184479832639e+00  1.0000049776143165e+00  1.0000137838628267e+00  1.0000037313725556e+00  9.9999877532742187e-01  1.0000054140374559e+00  1.0000332200416462e+00  9.9997728114145712e-01  9.9981535679341649e-01  1.0000370680672113e+00  1.0009769940193587e+00  1.0005007987293197e+00  9.9557096296266856e-01  9.9287622847518053e-01  1.0118226445338310e+00  1.0501792853661325e+00  1.0373073953465426e+00  8.6864946546297961e-01  5.3583473560708339e-01  1.8647517378986203e-01  -1.1838570692180262e-02  -4.1401924892625466e-02  -9.0127830678582033e-03  5.3877510255969409e-03  1.5905042138616016e-03  -8.0917590285005674e-04  -1.0572527946883330e-04  1.0305237921838067e-04  -7.6734994942648286e-06  0.0000000000000000e+00  1.0000000000000000e+00  9.9999159113344827e-01  1.0000015745763884e+00  9.9998816253964040e-01  1.0000059198293980e+00  9.9998402591683344e-01  1.0000085866317092e+00  9.9998356463665183e-01  1.0000069147691899e+00  9.9998675775378087e-01  1.0000029274194568e+00  9.9999057959709436e-01  9.9999926782266979e-01  9.9999417160542381e-01  9.9999982727335446e-01  9.9999582614080107e-01  9.9999302535206780e-01  1.0000066220084547e+00  1.0000350552515291e+00  9.9996355138649051e-01  9.9980209403832065e-01  1.0001216231500862e+00  1.0011000076329042e+00  1.0000904971689930e+00  9.9451920046357623e-01  9.9395505254257910e-01  1.0186547278652813e+00  1.0557093860469471e+00  1.0168744839863133e+00  8.0158722361066881e-01  4.4051866786601401e-01  1.1354456928107545e-01  -3.3638317586591977e-02  -3.2174389216316046e-02  -1.0404383069746248e-03  4.7279893241336758e-03  9.1640681541760836e-05  -5.8761176987269569e-04  7.4739832723621331e-05  3.2299051088606839e-05  0.0000000000000000e+00  1.0000000000000000e+00  1.0000034704671770e+00  9.9999938355477447e-01  1.0000048258158114e+00  9.9999751134173454e-01  1.0000068767790302e+00  9.9999583592830577e-01  1.0000077067828976e+00  9.9999601084591139e-01  1.0000066429717729e+00  9.9999769694170326e-01  1.0000049119584653e+00  9.9999942663193153e-01  1.0000027408051857e+00  1.0000000360325971e+00  1.0000019797774233e+00  9.9999736236724646e-01  9.9999272652209181e-01  1.0000090292174366e+00  1.0000360741983330e+00  9.9994782923277070e-01  9.9979298807488814e-01  1.0002198771626862e+00  1.0011982556386552e+00  9.9956021917383098e-01  9.9351541960081047e-01  9.9585316380510369e-01  1.0264016831162119e+00  1.0584817284592272e+00  9.8669513002425091e-01  7.2300574808588147e-01  3.4402112571520188e-01  5.2713373057044099e-02  -4.2752479560464698e-02  -2.0462671581496682e-02  3.6072145244168620e-03  2.8754055383520636e-03  -6.1691273142644345e-04  -2.1654451002809045e-04  7.3277303359944461e-05  0.0000000000000000e+00  1.0000000000000000e+00  9.9999856481221439e-01  1.0000002479540362e+00  9.9999803562908929e-01  1.0000010189125128e+00  9.9999709267320547e-01  1.0000019256404622e+00  9.9999646577761936e-01  1.0000021294702528e+00  9.9999669917023737e-01  1.0000014842560518e+00  9.9999749418651251e-01  1.0000007777613251e+00  9.9999854177423764e-01  1.0000001693372464e+00  9.9999960154032819e-01  1.0000012003947549e+00  9.9999717462311477e-01  9.9999244626407235e-01  1.0000116635557743e+00  1.0000368440294951e+00  9.9993106001075127e-01  9.9978863715810451e-01  1.0003299990836474e+00  1.0012630656122410e+00  9.9891049151136502e-01  9.9263620898846505e-01  9.9869988269907362e-01  1.0347707052675388e+00  1.0571401516155361e+00  9.4519335393352300e-01  6.3378414169859554e-01  2.5016560070322374e-01  6.4213491752431332e-03  -4.1211615680786844e-02  -9.2123769812414991e-03  4.9213672317742858e-03  9.4519815519993348e-04  -5.9130942546504963e-04  7.3410987960794544e-06  0.0000000000000000e+00  1.0000000000000000e+00  1.0000005939247072e+00  9.9999989722127680e-01  1.0000008012676393e+00  9.9999958951798040e-01  1.0000012105283056e+00  9.9999914288905878e-01  1.0000015868246208e+00  9.9999892837849014e-01  1.0000016084443126e+00  9.9999911675399000e-01  1.0000012656842086e+00  9.9999945814850688e-01  1.0000008544533638e+00  9.9999969262616861e-01  1.0000000691681392e+00  9.9999992578698849e-01  1.0000010134082296e+00  9.9999687067085408e-01  9.9999215215777260e-01  1.0000142214121888e+00  1.0000372658764041e+00  9.9991364571242181e-01  9.9978916841403742e-01  1.0004495565231035e+00  1.0012869801272666e+00  9.9814858948678575e-01  9.9196826745880828e-01  1.0025980456107633e+00  1.0433116801561189e+00  1.0500913104510368e+00  8.9096128450556378e-01  5.3566553071089706e-01  1.6325705620346628e-01  -2.3913035854963936e-02  -3.2157364968885459e-02  -8.0570324776141279e-04  3.7874294609752889e-03  -2.2371073109333619e-04  -2.3199276732275003e-04  0.0000000000000000e+00  1.0000000000000000e+00  9.9999975434139610e-01  1.0000000436123582e+00  9.9999967175001436e-01  1.0000001643605290e+00  9.9999950168443141e-01  1.0000003695871713e+00  9.9999930200689835e-01  1.0000005166450341e+00  9.9999923475799890e-01  1.0000004863000920e+00  9.9999934857400674e-01  1.0000003327114284e+00  9.9999959060788646e-01  1.0000003259670613e+00  9.9999983984119256e-01  9.9999983499689449e-01  1.0000000051928766e+00  1.0000009619162777e+00  9.9999659364954419e-01  9.9999188098246661e-01  1.0000166963479769e+00  1.0000374988898106e+00  9.9989601096351077e-01  9.9979414894035989e-01  1.0005755374527747e+00  1.0012648399974440e+00  9.9728912055645991e-01  9.9160345304992992e-01  1.0076089716479626e+00  1.0513925094652838e+00  1.0355119397674666e+00  8.2290007223940853e-01  4.3140651166547245e-01  8.7815887769196549e-02  -3.8311346402094416e-02  -1.9547625087729652e-02  3.4534710835113329e-03  1.7000093188621933e-03  -3.9051495737330689e-04  0.0000000000000000e+00  1.0000000000000000e+00  1.0000001014665449e+00  9.9999998127838041e-01  1.0000001351636902e+00  9.9999993402349263e-01  1.0000002036482609e+00  9.9999984450876167e-01  1.0000003010380931e+00  9.9999976000371837e-01  1.0000003573449212e+00  9.9999974781529677e-01  1.0000003251967078e+00  9.9999979010130202e-01  1.0000002008142717e+00  9.9999985749032216e-01  1.0000002176844891e+00  9.9999994689050753e-01  9.9999969442715486e-01  9.9999998390388700e-01  1.0000009612538725e+00  9.9999635640383655e-01  9.9999155905443082e-01  1.0000190205173582e+00  1.0000378150115596e+00  9.9987861576430215e-01  9.9980247439293357e-01  1.0007045431816313e+00  1.0011951486415624e+00  9.9635393427331020e-01  9.9163104704545257e-01  1.0137364810567657e+00  1.0581783525166084e+00  1.0113634127131257e+00  7.4039352760041155e-01  3.2491372483587311e-01  2.8163748510044006e-02  -3.8620391499915280e-02  -7.5778996430069974e-03  3.7383641269672072e-03  1.9247223147763441e-04  0.0000000000000000e+00  1.0000000000000000e+00  9.9999995816697496e-01  1.0000000080287497e+00  9.9999994408797510e-01  1.0000000267390345e+00  9