<?xml version="1.0"?>
<VTKFile type="UnstructuredGrid"  version="0.1"  >
<UnstructuredGrid>
<Piece  NumberOfPoints="3247" NumberOfCells="6316">
<Points>
<DataArray  type="Float64"  NumberOfComponents="3"  format="ascii">1 0 0  0.9993555236433214 0.03589620263458217 0  0.997422925272834 0.07174613676137928 0  0.9942046959164516 0.1075035935105249 0  0.9897049837196349 0.1431224832111195 0  0.9839295885986297 0.1785568947986367 0  0.9768859547646477 0.2137611549921144 0  0.9685831611286311 0.2486898871648547 0  0.9590319095989657 0.2832980698327494 0  0.9482445112872263 0.3175410946848443 0  0.9362348706397372 0.3513748240813427 0  0.9230184675153973 0.3847556479449359 0  0.9086123372328745 0.4176405399721311 0  0.8930350486128854 0.4499871130921211 0  0.8763066800438636 0.4817536741017152 0  0.8584487936018661 0.5128992774059061 0  0.8394844072580773 0.5433837777948056 0  0.8194379652097319 0.5731678821889221 0  0.7983353063727014 0.6022132002860821 0  0.776203631076353 0.6304822940447137 0  0.753071466003611 0.6579387259397126 0  0.7289686274214116 0.6845471059286886 0  0.703926182748945 0.7102731370680569 0  0.6779764105132209 0.7350836597201768 0  0.6511527587435736 0.7589466942945555 0  0.6234898018587336 0.7818314824680297 0  0.5950231961020372 0.8037085268307886 0  0.5657896335822146 0.8245496289071407 0  0.5358267949789968 0.844327925502015 0  0.5051733009745012 0.8630179233263502 0  0.4738686624729987 0.880595531856738 0  0.4419532296732268 0.8970380943869686 0  0.4094681400588907 0.9123244172314543 0  0.3764552653743922 0.9264347970428874 0  0.3429571576541317 0.9393510462089234 0  0.3090169943749475 0.9510565162951535 0  0.2746785228023903 0.9615361195041489 0  0.2399860036025661 0.9707763481229181 0  0.2049841537922305 0.9787652919337113 0  0.1697180891006692 0.9854926535657267 0  0.1342332658176555 0.9909497617679347 0  0.09857542220244361 0.9951295825859112 0  0.06279051952931353 0.9980267284282716 0  0.02692468284566301 0.9996374650110211 0  -0.008975858480997714 0.9999597161708711 0  -0.04486483035051464 0.9989930665413147 0  -0.08069597357521718 0.9967387620880146 0  -0.1164231035058227 0.9931997085028129 0  -0.1520001695612669 0.9883804674584308 0  -0.1873813145857244 0.9822872507286887 0  -0.2225209339563141 0.9749279121818236 0  -0.2573737343653023 0.966311937657224 0  -0.2918947922010331 0.9564504327386316 0  -0.3260396114523417 0.945356108439569 0  -0.3597641810618067 0.9330432648194442 0  -0.3930250316539233 0.9195277725514508 0  -0.4257792915650723 0.9048270524660197 0  -0.4579847421030674 0.8889600530961933 0  -0.4895998719650521 0.8719472262538626 0  -0.5205839307436083 0.8538105006683474 0  -0.5508969814521024 0.8345732537213026 0  -0.5804999520015731 0.8142602813143788 0  -0.609354685562808 0.7928977659084754 0  -0.6374239897486894 0.7705132427757895 0  -0.6646716845534254 0.7471355645081498 0  -0.6910626489868646 0.7227948638273916 0  -0.716562866343792 0.6975225147457026 0  -0.7411394680498546 0.6713510921260041 0  -0.7647607760275981 0.6443143296944946 0  -0.7873963435280118 0.6164470765594702 0  -0.8090169943749473 0.5877852522924732 0  -0.829594860571831 0.5583658006296628 0  -0.8491034182221935 0.5282266418530845 0  -0.8675175217177173 0.4974066239132224 0  -0.8848134361497383 0.4659454723558251 0  -0.900968867902419 0.4338837391175582 0  -0.9159629933881664 0.4012627502564745 0  -0.9297764858882513 0.3681245526846781 0  -0.9423915404640346 0.3345118599718458 0  -0.953791896906692 0.3004679972894522 0  -0.9639628606958532 0.2660368455666752 0  -0.9728913219401448 0.2312627849299525 0  -0.98056577227522 0.1961906374990954 0  -0.9869763196974956 0.1608656096136989 0  -0.9921147013144778 0.1253332335643045 0  -0.995974293995239 0.08963930890343406 0  -0.9985501229073209 0.05382984341212858 0  -0.9998388679290582 0.01795099379809745 0  -0.9998388679290582 -0.01795099379809676 0  -0.9985501229073209 -0.0538298434121279 0  -0.9959742939952391 -0.08963930890343293 0  -0.9921147013144779 -0.1253332335643038 0  -0.9869763196974957 -0.1608656096136982 0  -0.9805657722752201 -0.1961906374990947 0  -0.9728913219401449 -0.2312627849299519 0  -0.9639628606958535 -0.2660368455666746 0  -0.9537918969066922 -0.3004679972894515 0  -0.9423915404640348 -0.3345118599718452 0  -0.9297764858882516 -0.3681245526846775 0  -0.9159629933881667 -0.4012627502564739 0  -0.9009688679024194 -0.4338837391175576 0  -0.8848134361497386 -0.4659454723558245 0  -0.8675175217177177 -0.4974066239132218 0  -0.8491034182221938 -0.5282266418530839 0  -0.8295948605718313 -0.5583658006296622 0  -0.8090169943749478 -0.5877852522924727 0  -0.7873963435280121 -0.6164470765594696 0  -0.7647607760275985 -0.6443143296944941 0  -0.7411394680498552 -0.6713510921260035 0  -0.7165628663437924 -0.6975225147457021 0  -0.6910626489868651 -0.7227948638273911 0  -0.664671684553426 -0.7471355645081493 0  -0.6374239897486902 -0.7705132427757888 0  -0.6093546855628086 -0.7928977659084749 0  -0.5804999520015737 -0.8142602813143783 0  -0.5508969814521026 -0.8345732537213025 0  -0.5205839307436093 -0.8538105006683467 0  -0.489599871965053 -0.871947226253862 0  -0.457984742103068 -0.888960053096193 0  -0.4257792915650729 -0.9048270524660194 0  -0.3930250316539238 -0.9195277725514506 0  -0.3597641810618077 -0.9330432648194439 0  -0.3260396114523425 -0.9453561084395686 0  -0.2918947922010338 -0.9564504327386314 0  -0.2573737343653027 -0.9663119376572239 0  -0.2225209339563146 -0.9749279121818236 0  -0.1873813145857255 -0.9822872507286885 0  -0.1520001695612678 -0.9883804674584307 0  -0.1164231035058234 -0.9931997085028128 0  -0.08069597357521764 -0.9967387620880146 0  -0.0448648303505151 -0.9989930665413146 0  -0.008975858480998846 -0.9999597161708711 0  0.02692468284566209 -0.9996374650110211 0  0.06279051952931283 -0.9980267284282716 0  0.09857542220244316 -0.9951295825859113 0  0.1342332658176553 -0.9909497617679348 0  0.1697180891006681 -0.9854926535657268 0  0.2049841537922296 -0.9787652919337115 0  0.2399860036025654 -0.9707763481229184 0  0.2746785228023899 -0.961536119504149 0  0.3090169943749472 -0.9510565162951536 0  0.3429571576541307 -0.9393510462089238 0  0.3764552653743913 -0.9264347970428878 0  0.40946814005889 -0.9123244172314546 0  0.4419532296732264 -0.8970380943869688 0  0.4738686624729985 -0.8805955318567381 0  0.5051733009745002 -0.8630179233263507 0  0.535826794978996 -0.8443279255020155 0  0.565789633582214 -0.824549628907141 0  0.5950231961020368 -0.803708526830789 0  0.6234898018587334 -0.7818314824680299 0  0.6511527587435728 -0.7589466942945562 0  0.6779764105132203 -0.7350836597201773 0  0.7039261827489446 -0.7102731370680575 0  0.7289686274214112 -0.6845471059286889 0  0.7530714660036107 -0.6579387259397128 0  0.7762036310763525 -0.6304822940447145 0  0.798335306372701 -0.6022132002860827 0  0.8194379652097316 -0.5731678821889227 0  0.839484407258077 -0.543383777794806 0  0.858448793601866 -0.5128992774059064 0  0.8763066800438631 -0.4817536741017161 0  0.8930350486128851 -0.4499871130921218 0  0.9086123372328742 -0.4176405399721316 0  0.9230184675153971 -0.3847556479449364 0  0.9362348706397369 -0.3513748240813437 0  0.9482445112872261 -0.3175410946848452 0  0.9590319095989654 -0.2832980698327502 0  0.968583161128631 -0.2486898871648553 0  0.9768859547646476 -0.2137611549921149 0  0.9839295885986294 -0.1785568947986378 0  0.9897049837196348 -0.1431224832111204 0  0.9942046959164514 -0.1075035935105257 0  0.9974229252728339 -0.07174613676137988 0  0.9993555236433214 -0.0358962026345826 0  1.110223024625157e-16 -1.110223024625157e-16 0  -0.3117951411261654 0.3909787404481578 0  -0.3992319822624397 -0.3011551258921497 0  0.2448393874600758 0.4360438737793348 0  0.4993555236433215 -0.02691925926205635 0  0.06116108087202375 -0.4962816152215599 0  -0.5841365272693606 0.08447271832753951 0  0.4445277546904128 -0.4149616096050246 0  -0.04059092567803513 0.6451742884435483 0  0.571065678144414 0.3139460132675112 0  -0.2581397571108915 -0.6089563792976045 0  0.2402575856966486 -0.1882050390765356 0  -0.3005933052589206 -0.01671507874191697 0  -0.6763867868097135 -0.1998046876706065 0  -0.02925104174155951 0.3613023778452966 0  -0.6021340349666189 0.3747096007196487 0  0.6730773891224062 -0.249359560379421 0  0.2837145065383796 -0.6637830856216058 0  0.2580509879894111 0.1418647311501196 0  -0.3100827193427029 0.6609249927865365 0  0.4773868276709318 0.5605124650126782 0  0.2407502396170498 0.6980584617201832 0  0.7325853782155305 0.09254705548867456 0  -0.01997742610764346 -0.7417054346066905 0  -0.5083778920487834 -0.5374243167139329 0  -0.1127006069074834 -0.2657985841056832 0  -0.1900399756169491 0.1903232964956705 0  -0.783792648766321 3.434752482434078e-16 0  -0.7528088994152949 0.2196898432240604 0  -0.4869545878684758 -0.1114114283610817 0  -0.4488783074829538 0.2385364940103125 0  -0.4650384041618761 0.5269294067524207 0  0.4892386562107178 -0.6202357683035326 0  0.6482253070913323 -0.4555741147884665 0  0.4789303855629575 -0.221927897199748 0  0.2557531284853493 -0.4693341391069193 0  -0.5784790074273507 -0.3616958184363754 0  -0.1657043788707097 0.7912108900109154 0  0.07564661437142192 0.8015989435961182 0  -0.239820766912285 -0.4143211066178436 0  -0.1828126764076503 0.5251390893100653 0  0.7589076655578624 0.2813673841136566 0  0.6587031761295579 0.4785758707903294 0  0.06515612775812807 0.1871103114675153 0  0.08008745399420379 -0.3011881716312999 0  -0.4131778337542747 -0.705856535496305 0  -0.2249805121332583 -0.7875638997676538 0  0.377874911725144 0.2946322679166584 0  0.1200949068432569 0.5651362436123446 0  0.7966702265681465 -0.09473866773244685 0  0.5621727950101231 0.1378411561530737 0  -0.08770099360612764 -0.5831913039495009 0  0.3196386693325101 -0.02696982629348851 0  -0.749409918125459 -0.3545189592573098 0  0.1531247048921997 -0.8027078138486923 0  -0.6698640707359489 -0.4990944075767225 0  -0.6290227974437268 0.5495606680378131 0  0.1618970245659218 0.01113927343822457 0  0.1239556278721375 -0.6
[...]
<PointData  Scalars="f_14"> 
<DataArray  type="Float64"  Name="f_14"  format="ascii">0.0000000000000000e+00  0.0000000000000000e+00  0.0000000000000000e+00  0.0000000000000000e+00  0.0000000000000000e+00  0.0000000000000000e+00  0.0000000000000000e+00  0.0000000000000000e+00  0.0000000000000000e+00  0.0000000000000000e+00  0.0000000000000000e+00  0.0000000000000000e+00  0.0000000000000000e+00  0.0000000000000000e+00  0.0000000000000000e+00  0.0000000000000000e+00  0.0000000000000000e+00  0.0000000000000000e+00  0.0000000000000000e+00  0.0000000000000000e+00  0.0000000000000000e+00  0.0000000000000000e+00  0.0000000000000000e+00  0.0000000000000000e+00  0.0000000000000000e+00  0.0000000000000000e+00  0.0000000000000000e+00  0.0000000000000000e+00  0.0000000000000000e+00  0.0000000000000000e+00  0.0000000000000000e+00  0.0000000000000000e+00  0.0000000000000000e+00  0.0000000000000000e+00  0.0000000000000000e+00  0.0000000000000000e+00  0.0000000000000000e+00  0.0000000000000000e+00  0.0000000000000000e+00  0.0000000000000000e+00  0.0000000000000000e+00  0.0000000000000000e+00  0.0000000000000000e+00  0.0000000000000000e+00  0.0000000000000000e+00  0.0000000000000000e+00  0.0000000000000000e+00  0.0000000000000000e+00  0.0000000000000000e+00  0.0000000000000000e+00  0.0000000000000000e+00  0.0000000000000000e+00  0.0000000000000000e+00  0.0000000000000000e+00  0.0000000000000000e+00  0.0000000000000000e+00  0.0000000000000000e+00  0.0000000000000000e+00  0.0000000000000000e+00  0.0000000000000000e+00  0.0000000000000000e+00  0.0000000000000000e+00  0.0000000000000000e+00  0.0000000000000000e+00  0.0000000000000000e+00  0.0000000000000000e+00  0.0000000000000000e+00  0.0000000000000000e+00  0.0000000000000000e+00  0.0000000000000000e+00  0.0000000000000000e+00  0.0000000000000000e+00  0.0000000000000000e+00  0.0000000000000000e+00  0.0000000000000000e+00  0.0000000000000000e+00  0.0000000000000000e+00  0.0000000000000000e+00  0.0000000000000000e+00  0.0000000000000000e+00  0.0000000000000000e+00  0.0000000000000000e+00  0.0000000000000000e+00  0.0000000000000000e+00  0.0000000000000000e+00  0.0000000000000000e+00  0.0000000000000000e+00  0.0000000000000000e+00  0.0000000000000000e+00  0.0000000000000000e+00  0.0000000000000000e+00  0.0000000000000000e+00  0.0000000000000000e+00  0.0000000000000000e+00  0.0000000000000000e+00  0.0000000000000000e+00  0.0000000000000000e+00  0.0000000000000000e+00  0.0000000000000000e+00  0.0000000000000000e+00  0.0000000000000000e+00  0.0000000000000000e+00  0.0000000000000000e+00  0.0000000000000000e+00  0.0000000000000000e+00  0.0000000000000000e+00  0.0000000000000000e+00  0.0000000000000000e+00  0.0000000000000000e+00  0.0000000000000000e+00  0.0000000000000000e+00  0.0000000000000000e+00  0.0000000000000000e+00  0.0000000000000000e+00  0.0000000000000000e+00  0.0000000000000000e+00  0.0000000000000000e+00  0.0000000000000000e+00  0.0000000000000000e+00  0.0000000000000000e+00  0.0000000000000000e+00  0.0000000000000000e+00  0.0000000000000000e+00  0.0000000000000000e+00  0.0000000000000000e+00  0.0000000000000000e+00  0.0000000000000000e+00  0.0000000000000000e+00  0.0000000000000000e+00  0.0000000000000000e+00  0.0000000000000000e+00  0.0000000000000000e+00  0.0000000000000000e+00  0.0000000000000000e+00  0.0000000000000000e+00  0.0000000000000000e+00  0.0000000000000000e+00  0.0000000000000000e+00  0.0000000000000000e+00  0.0000000000000000e+00  0.0000000000000000e+00  0.0000000000000000e+00  0.0000000000000000e+00  0.0000000000000000e+00  0.0000000000000000e+00  0.0000000000000000e+00  0.0000000000000000e+00  0.0000000000000000e+00  0.0000000000000000e+00  0.0000000000000000e+00  0.0000000000000000e+00  0.0000000000000000e+00  0.0000000000000000e+00  0.0000000000000000e+00  0.0000000000000000e+00  0.0000000000000000e+00  0.0000000000000000e+00  0.0000000000000000e+00  0.0000000000000000e+00  0.0000000000000000e+00  0.0000000000000000e+00  0.0000000000000000e+00  0.0000000000000000e+00  0.0000000000000000e+00  0.0000000000000000e+00  0.0000000000000000e+00  0.0000000000000000e+00  0.0000000000000000e+00  0.0000000000000000e+00  0.0000000000000000e+00  0.0000000000000000e+00  0.0000000000000000e+00  0.0000000000000000e+00  0.0000000000000000e+00  0.0000000000000000e+00  2.9305458159532533e-01  1.1764871662824938e-01  1.1652951610657863e-01  1.2022710732929431e-01  1.2085661741104325e-01  1.1850301037501397e-01  4.3972978790859492e-02  3.4108761237392940e-02  1.6402697052966292e-02  1.4994198917134537e-02  1.1664858319117439e-02  2.5610499048993818e-01  2.5071802200985083e-01  4.2230523524733740e-03  2.2233817531828268e-01  3.6642260090684470e-03  2.9571393684611055e-03  2.5967121507505845e-03  2.6248789460017335e-01  2.0104043657311814e-03  1.8703421629334225e-03  1.9488255978016471e-03  1.8518697867396584e-03  1.4915140133540178e-03  1.5166721514570805e-03  2.5822587288092741e-01  2.6683665130918016e-01  3.1973897635301392e-04  4.7921791618285125e-04  1.1676244113525733e-01  1.0963772280935626e-01  4.1244633554825315e-03  2.7200144403012448e-04  4.4492811044495855e-04  9.5761968196023062e-02  8.8975521848663155e-02  7.0384926539573504e-03  2.3591126606240493e-04  1.2162945950416235e-04  1.3527287889053902e-01  7.0180165864167768e-02  9.7316427276334825e-05  1.1703647150089423e-04  2.9437566925113751e-01  2.5019123364558299e-01  -5.8917713666424793e-06  3.0709907101677531e-05  1.3896419697609538e-01  5.4057204155175960e-02  2.1432749381326694e-04  5.3763198363364018e-02  4.4747796502574759e-02  2.4945938058269890e-01  4.0212707332786060e-05  -7.1414177007165621e-06  1.0872193234758625e-04  1.0180406844891569e-04  3.0259636726804345e-01  1.3216646060309749e-02  1.3195434704472587e-04  2.3812800790926264e-01  2.9434672680850027e-01  1.7338616566714024e-01  -9.1380227217220512e-05  2.9968249458452029e-01  2.3604628743903011e-01  1.5659077980191871e-01  1.4239539832337812e-02  1.2963360887532826e-04  5.0441347819477346e-06  1.7509420683144833e-01  1.6213274479763162e-01  2.9568095978674713e-01  1.6274761929992318e-02  2.2323903707605203e-01  2.7728083222917119e-02  1.9492469076761134e-02  7.9421801806919414e-05  4.0828584230125711e-02  -4.9678974794154766e-05  1.8311230718277574e-01  1.1548241438396022e-01  1.8826829918364490e-01  4.5689620905988965e-02  1.1325315080894616e-02  1.2350766994661101e-02  1.1385948016836987e-02  -4.7537517089485612e-05  2.4504815033121676e-04  -1.0226540799435866e-04  -4.8876235219242559e-05  1.2161292853692556e-04  2.9975046204147884e-02  1.5616161597677847e-05  8.8276074349703484e-05  7.7437681694110215e-03  4.2032280570741355e-02  -6.1580171106430985e-06  2.0886878720947644e-01  5.9023546039137431e-03  1.8556771161493779e-01  1.1152792375754621e-04  2.6690698452416065e-02  2.8024954747156844e-01  3.4910399335620443e-02  1.8239275526847110e-01  1.5383594378259589e-04  4.5126846107000559e-03  -3.2057373616131639e-05  5.2170761456311670e-03  1.5202105346066313e-04  7.0094159029165937e-04  7.1726374535210618e-03  3.0016436626378062e-01  2.9425223324414096e-01  -7.5584550859361672e-06  1.7907193870260527e-01  8.7894041580095006e-02  1.0860260846357790e-04  -3.2099198441296400e-05  2.0367447970079142e-01  -1.2465036374236549e-04  1.9049402150875282e-03  2.1195396308212441e-01  9.4594458482616828e-02  1.0619098858058924e-03  3.0579876397948257e-04  5.2584211949363471e-04  1.4052141324542391e-03  -5.4044424362029091e-05  2.0861692806455816e-02  6.4115518371747712e-02  2.5493441108191878e-01  8.1523715305447469e-02  -4.5553148460352460e-05  2.8001779931674059e-04  3.4752628811906142e-03  1.6318054817094404e-03  -1.2007985145197774e-04  6.1753578310509412e-04  2.9298508035475274e-01  4.7913132428363141e-02  3.4795670097521854e-03  -3.8177765789952755e-05  2.3448245698877261e-04  7.5622055998234526e-04  1.2471812368427489e-01  2.1592820192815779e-02  -1.5457260298534691e-04  1.5501006923748548e-01  -1.1081196412413535e-04  3.3192120859323770e-02  2.0124433842261626e-03  4.9868359840691216e-03  1.2105742894242327e-03  2.7212695592859043e-01  9.5715087616234443e-02  3.1919566913925612e-02  2.3842001766147605e-01  1.3961429224414241e-04  3.0346377211697140e-01  -4.3798824639448791e-05  -1.6310884536698702e-04  1.6031828869702122e-01  5.0798053009310756e-02  3.9229933956495787e-02  1.5642062605041455e-04  2.8023550819991627e-01  7.6921460286610583e-04  -1.0659673785591343e-04  2.5135476158474925e-02  9.5652596528610481e-02  6.2007960555591900e-02  2.6330597577577369e-01  5.5330576840709793e-02  1.9341336285574667e-01  7.6608598930169884e-04  5.7356695198577490e-04  1.9377944155830085e-01  2.4424022130017750e-01  2.0696829473586681e-01  1.2712145321580706e-01  -1.1255121367740518e-04  2.8683652537793517e-04  -4.8703439912360057e-05  2.7299013487840501e-01  4.2529515935188923e-04  1.9695572858343666e-01  2.0377861753123677e-01  6.9145495612579246e-05  -8.8995536771456768e-06  2.3824357593752229e-02  1.2896650577841875e-03  5.8437817902482316e-03  6.4242319157491908e-03  1.6012317247493290e-03  4.4758312070274975e-02  -1.0831902966434149e-04  -4.8921827026621592e-05  2.1788216346235151e-04  -1.2008961585407194e-04  -2.8722530507625500e-04  7.4322237845420833e-05  -2.6499307195788675e-05  1.8526095022162894e-01  7.6932248359413855e-02  1.7126707788966789e-02  3.9795175710988819e-02  9.6221960524500730e-02  4.9172950957720538e-03  4.1611825551860355e-04  2.4645182901185186e-01  4.2568065039177463e-05  3.7429951711172586e-04  1.2030245243319913e-01  -1.2109571259118877e-04  1.0697777103254497e-01  1.1291327104692513e-01  2.0930712892723025e-05  2.5010505158386714e-01  5.6175607006447490e-04  -9.0813516023497681e-05  3.8796472997882664e-02  1.1510805157431457e-01  1.0262284905745789e-03  1.1012543444897734e-03  2.9750179134576543e-01  1.8219052151088488e-01  -2.0565610398890365e-05  1.2529074315676439e-04  1.5030179799200285e-02  3.2546190789800804e-02  2.9464902097263002e-01  4.0212093215321299e-05  4.6259930415056338e-05  1.0002906910696500e-04  2.5757985930935251e-01  1.6379947118339763e-01  -1.9953917180300546e-05  1.2229678670069358e-01  4.0856161106740388e-03  8.9055355293707235e-03  7.5551001072202695e-02  3.1313657056661469e-02  5.3196982929191333e-04  3.2280009152784125e-03  9.6617155254508143e-05  1.1747652737418417e-02  2.8158564975377004e-01  3.6285973817570946e-03  7.3457129037026695e-05  2.0217408596778813e-01  2.9581774990591164e-01  3.0364813420908676e-01  2.8343895396622337e-01  1.9757684119476374e-01  2.9056497828069455e-01  2.7500195679478423e-01  1.7852539339555212e-01  3.4349050896139620e-04  7.4607094752831042e-05  2.6196630265180996e-05  7.3515873314155628e-05  8.8209939847672478e-03  1.8124000438266615e-04  2.8467239954581175e-01  5.0626384545700134e-02  1.3914800475959889e-05  1.0080209654996111e-05  4.9713226445878819e-02  1.1099366836257878e-02  1.3453602206306515e-04  1.7660324406413358e-01  6.1937790700470065e-05  3.8727697631653121e-06  -1.2325159976370344e-04  1.0803212800962934e-01  1.8794287317873662e-01  1.0850898388785879e-01  4.8007248875229711e-03  3.3246612600097071e-02  3.4544318638263878e-04  6.7299990187408949e-05  7.5072106338495412e-05  1.9209358060004588e-05  5.0497956283313503e-05  3.6311520516518854e-03  4.4829099300861186e-03  1.4819352113311021e-01  9.0653887512225507e-04  4.2947172069624363e-04  2.4633456705822221e-01  2.3983605620975209e-03  7.2390382584156011e-03  5.4979220213856747e-02  5.9670341848541751e-04  2.1368133862432145e-01  1.2642833509220555e-01  9.0536844919964846e-02  6.7950565510973768e-05  3.1638975410749551e-04  2.6822137001571300e-01  1.8307948956677841e-01  1.1360438967604751e-01  1.5250300163372443e-01  2.8298234181195575e-01  5.2058993964702220e-05  2.4718469357508174e-01  1.9999429732242588e-01  2.4865792826600913e-01  1.4729524783614573e-01  3.6349551891650396e-03  8.0612160267617330e-03  3.2149881987744607e-02  1.1231356130165548e-04  9.7303866821646552e-03  1.2240539573492191e-02  1.1212570186931307e-02  6.7675504471724029e-05  2.2909695171345659e-01  2.9414665873013907e-01  3.0005286002940074e-01  6.8014741528797718e-02  2.8665552168824798e-01  2.8120744627724220e-01  9.7737164542438471e-02  -7.3995675650964714e-05  1.0721811333426751e-02  8.5214123549301884e-02  1.0173800435355094e-03  -7.7206311424416615e-06  1.0361863479511094e-04  9.6962800387795055e-03  3.2705076226532924e-02  2.7254713428879047e-04  9.2514793876548459e-05  2.3494353475228018e-04  3.0487014392825918e-05  1.6128619863171014e-02  2.2826310621428678e-01  6.6564718674397427e-05  5.6390056782711070e-02  8.5195264850805011e-05  1.2454353098770071e-04  9.2693558249773721e-05  1.5202217002846520e-02  9.6617868045572111e-04  2.4864215178281074e-01  6.5858986759337806e-05  2.6539878701218134e-01  1.2847852735700493e-01  2.9375221841750985e-03  8.1280103784623262e-02  3.2538103892861740e-05  1.7236286645183514e-02  2.9913698231917518e-01  1.3488999944903630e-04  1.4220137695416370e-05  2.2695911883972371e-03  8.1541963183186059e-02  3.7680465240834404e-04  1.6019670005380959e-02  1.5159555737475178e-01  7.7482785240848921e-05  1.4243987824937309e-03  1.4705606181235136e-04  -9.2898334838003492e-05  2.0157346845541799e-04  1.5305924777974544e-04  1.8504791345400691e-04  7.0250895919228293e-03  3.8177877692057306e-02  2.2013474875573619e-03  3.2385565006691399e-04  1.1258911349782125e-05  2.4194161388728430e-01  2.3026042206301223e-01  2.7282205443509720e-04  1.5622544655423092e-04  9.0349950191969132e-05  1.5699045710986173e-01  2.4083143487863663e-04  1.2065617388602903e-01  2.9184699622649427e-04  3.0296923257438835e-01  2.0739433244886515e-01  2.8831971603293283e-01  5.9190811037025549e-03  -4.3479683004621835e-05  2.4253575700086449e-04  2.2929809025380393e-01  -1.0040342523685458e-05  7.8771918775105105e-05  5.6769240353956232e-05  4.9266357595683631e-02  2.0547784266746501e-05  1.5254915858090748e-01  2.3614413167700977e-04  -5.4985225666748203e-05  1.7000065628457658e-05  6.7712949190476712e-02  9.6481769232593228e-03  7.6001616372057783e-05  2.2225457792911435e-01  1.2420979033525987e-04  5.3647635242359496e-03  4.8055491606404037e-02  2.6883093629547566e-01  -3.8161462250968137e-05  2.3554964473707252e-01  1.3374650784652198e-01  1.0029296100277517e-03  3.4374150335814727e-05  2.9642042289282561e-01  1.5260256310369792e-02  7.0679713638370140e-02  2.3243552506223893e-02  2.0915917592862790e-01  2.3758178225419732e-04  2.2524709017478273e-01  1.3348732493380321e-03  1.7580922252105902e-01  2.6993065002209164e-04  3.8327722195978563e-03  1.7830591668349942e-03  2.9617403305591211e-01  1.1190011294655660e-03  5.0729662486421211e-02  8.5784598090750012e-05  3.0215022109570405e-01  3.8958174002312967e-02  5.9182796240423389e-03  2.9223770231284502e-02  1.4649294837969346e-01  1.6483005464394202e-02  7.2944940938558064e-02  1.2663349632082528e-02  1.9641215081110351e-02  7.0264756261353700e-02  5.8893791780006297e-02  1.6627940255918114e-02  8.3107412177395041e-05  6.6470510263146737e-02  1.3252570695285260e-04  2.2294626057642792e-03  2.7252944240235955e-01  7.3503686279737079e-02  2.3378646848208031e-02  1.7738723480021643e-01  6.8769356186060876e-05  -8.9890731847427574e-06  2.1857204538134567e-01  2.2351679695821053e-01  8.0967660707501206e-04  9.8204823856844689e-03  2.2517258712479839e-03  1.4938552511889056e-01  1.4063262349075581e-03  1.6713314943707411e-01  1.8587482608182709e-04  2.1325171182636917e-04  2.6414979765196855e-01  8.4638171932377134e-04  1.7677147456637128e-02  6.1547376243872658e-04  1.3562577654665267e-01  2.9777487118476215e-01  1.2960802864083094e-03  4.1107010163840690e-03  2.1005717553786548e-02  1.3745490649314700e-03  2.3119543552543007e-02  4.6888940647540650e-02  2.9506270721162636e-01  1.6830245887359099e-01  -2.4211003852829079e-05  2.7645150353968239e-05  2.9626069123781656e-01  2.9772172888145249e-01  -6.3993412719326727e-05  1.8973314561051391e-01  1.5397176718819357e-04  1.3323892667367105e-04  -8.6615227221524226e-05  3.7720154749852901e-04  -2.6669249550353097e-05  -8.2316678334820717e-05  2.2960544623709428e-01  1.8481523856930179e-03  1.9466670939233526e-05  1.5171788547587077e-04  2.8568148707721051e-03  -3.0311836783547979e-05  -1.5012205376409020e-05  5.1872957496155309e-04  1.3183906572087576e-02  2.0840995648440108e-01  1.5870913606184648e-04  1.6595432265283544e-01  1.7298097073347679e-01  5.3610972291650454e-04  2.1441345695146602e-01  2.8463678822905081e-01  -6.2467797130712414e-05  -9.0272275235057360e-06  8.0945380975442369e-04  5.2340772545019620e-02  2.4020720227734371e-01  2.4503263424420885e-01  -9.4980365443176492e-06  3.8884825806462650e-05  5.6509001456266810e-04  2.9968167541634749e-01  9.3627215261803939e-02  4.6493442555866918e-02  1.4105852894689256e-04  1.4316623027185779e-06  7.4398224624442515e-05  7.2330800296067060e-02  1.6897179416552674e-05  1.7809814365390077e-04  5.7348583714565487e-05  -4.1306856279291241e-05  2.1866355136057894e-01  2.1568827966624968e-01  1.4314219142364557e-01  1.2665967660623637e-01  2.9661330060502859e-02  2.8486270673837185e-02  1.0711951714047215e-05  1.1280825779273768e-03  1.3129702894567200e-03  6.4401380737755189e-04  1.4581657435166397e-04  -5.3162424502507009e-05  1.1975056322893048e-01  8.4441621203238657e-02  1.3802774921211489e-02  5.2620446232070825e-04  -9.7524634419773683e-05  2.7636964763027799e-01  1.0118153985176020e-01  6.9003107027606023e-02  1.1309264071426592e-01  2.8309148269276656e-02  8.2130366947305758e-02  6.2464068747447976e-02  2.1526390168657331e-01  1.7073568146365892e-04  1.4364261932052480e-01  2.9117355047221403e-03  6.7880596953607444e-02  7.4590656481898321e-04  1.8445952194178235e-04  1.5579680171827929e-04  1.3264241988980211e-04  2.1895416040249756e-04  5.4296139466283053e-04  -6.7868025319858279e-05  1.6418341082422527e-02  5.8566602754730702e-03  3.7714676160245840e-02  9.0728522870884121e-02  1.0578454154584385e-02  1.7737243535207538e-04  5.9688869700335290e-05  3.7073068898568436e-03  5.6630665823010778e-05  1.5152540956770741e-01  7.3322751534978838e-04  1.8365603020252513e-01  5.0623227013895170e-04  1.4721105522968519e-01  3.8152401470969202e-04  2.4264192395265623e-05  4.4414387194850765e-05  7.2590515622839830e-05  -3.1587900026287325e-05  -1.2412007589711230e-04  5.3549165106876174e-05  3.8378428559335933e-03  9.8722139274723397e-04  5.7207287970715019e-04  2.1828748543673851e-01  1.4970422804242262e-01  1.0501993186892478e-04  2.4744038685241526e-04  6.5580089189310783e-02  9.3303628786929396e-02  1.8923565978773183e-04  5.6340817792999334e-05  3.5788497744426327e-03  3.0381720275790114e-01  6.6358284253906899e-02  2.0404005372015924e-01  7.6057230925022772e-06  3.8528506989186860e-05  -5.2448075455484373e-05  -2.8074972446356393e-05  1.1236999631850762e-02  2.8140483718708698e-01  -1.8303652706869260e-05  2.9799400181924240e-01  2.7867317361283606e-01  2.9886271112128177e-01  1.2826830293522490e-01  4.9931831576688132e-05  6.3006589829604429e-03  2.3898039271596973e-03  -1.2018525506410757e-05  -3.7272563923243285e-05  1.6907296114343070e-03  2.8525218486738402e-03  1.1029685076433957e-02  -1.0224876373398340e-04  1.1973208531428312e-01  -1.4219969642835398e-04  -2.0562156746177707e-05  2.9812829635245802e-01  -3.0473022834458070e-05  1.0249082860129043e-05  -5.9651915881096619e-05  1.3945275670252576e-04  2.5535767594560255e-04  2.0996169164718276e-02  7.3140390947111717e-03  3.0049415017224298e-03  4.1747450980470684e-03  2.6525299885552043e-04  5.4941190793681999e-03  -2.6283935022226083e-06  1.3436774909607690e-01  4.6273151672910065e-03  -8.0361102503379874e-05  3.6440423428922233e-04  -8.3662618223987953e-05  5.7877717368456885e-02  -2.4749606607738283e-05  2.5343409592211774e-01  3.0100840784308476e-02  -9.4238369401647686e-05  3.6087145066214955e-03  1.4724169514955903e-02  1.2365206163956673e-01  4.2415011532697538e-04  2.8868770485550265e-02  1.7880663018265792e-03  -6.1516636247446911e-05  -1.2025678521542825e-04  2.8292408331759378e-01  2.5659500215302894e-01  2.35155661390864