<?xml version="1.0"?>
<VTKFile type="UnstructuredGrid"  version="0.1"  >
<UnstructuredGrid>
<Piece  NumberOfPoints="2077" NumberOfCells="4012">
<Points>
<DataArray  type="Float64"  NumberOfComponents="3"  format="ascii">1 0 0  0.9989930665413147 0.04486483035051492 0  0.9959742939952391 0.0896393089034335 0  0.9909497617679348 0.1342332658176555 0  0.9839295885986297 0.1785568947986367 0  0.9749279121818236 0.2225209339563144 0  0.9639628606958532 0.2660368455666751 0  0.9510565162951535 0.3090169943749474 0  0.9362348706397372 0.3513748240813427 0  0.9195277725514507 0.3930250316539236 0  0.9009688679024191 0.4338837391175581 0  0.880595531856738 0.4738686624729986 0  0.8584487936018661 0.5128992774059061 0  0.8345732537213026 0.5508969814521025 0  0.8090169943749475 0.5877852522924731 0  0.7818314824680298 0.6234898018587335 0  0.753071466003611 0.6579387259397126 0  0.7227948638273916 0.6910626489868646 0  0.6910626489868646 0.7227948638273916 0  0.6579387259397126 0.7530714660036109 0  0.6234898018587336 0.7818314824680298 0  0.5877852522924731 0.8090169943749475 0  0.5508969814521025 0.8345732537213026 0  0.5128992774059061 0.8584487936018661 0  0.4738686624729987 0.880595531856738 0  0.4338837391175582 0.9009688679024191 0  0.3930250316539237 0.9195277725514506 0  0.3513748240813427 0.9362348706397372 0  0.3090169943749475 0.9510565162951535 0  0.2660368455666752 0.9639628606958532 0  0.2225209339563144 0.9749279121818236 0  0.1785568947986367 0.9839295885986297 0  0.1342332658176555 0.9909497617679347 0  0.08963930890343355 0.9959742939952391 0  0.04486483035051499 0.9989930665413146 0  6.123233995736766e-17 1 0  -0.04486483035051486 0.9989930665413147 0  -0.08963930890343344 0.9959742939952391 0  -0.1342332658176554 0.9909497617679348 0  -0.1785568947986366 0.9839295885986297 0  -0.2225209339563143 0.9749279121818236 0  -0.2660368455666751 0.9639628606958534 0  -0.3090169943749473 0.9510565162951536 0  -0.3513748240813426 0.9362348706397372 0  -0.3930250316539236 0.9195277725514507 0  -0.4338837391175581 0.9009688679024191 0  -0.4738686624729986 0.880595531856738 0  -0.5128992774059061 0.8584487936018662 0  -0.5508969814521024 0.8345732537213026 0  -0.587785252292473 0.8090169943749475 0  -0.6234898018587335 0.7818314824680299 0  -0.6579387259397126 0.753071466003611 0  -0.6910626489868646 0.7227948638273916 0  -0.7227948638273914 0.6910626489868648 0  -0.7530714660036109 0.6579387259397127 0  -0.7818314824680298 0.6234898018587336 0  -0.8090169943749473 0.5877852522924732 0  -0.8345732537213026 0.5508969814521026 0  -0.8584487936018661 0.5128992774059062 0  -0.880595531856738 0.4738686624729987 0  -0.900968867902419 0.4338837391175582 0  -0.9195277725514506 0.3930250316539237 0  -0.9362348706397372 0.3513748240813428 0  -0.9510565162951535 0.3090169943749475 0  -0.9639628606958532 0.2660368455666752 0  -0.9749279121818236 0.2225209339563145 0  -0.9839295885986297 0.1785568947986368 0  -0.9909497617679347 0.1342332658176556 0  -0.9959742939952391 0.08963930890343362 0  -0.9989930665413146 0.04486483035051505 0  -1 1.224646799147353e-16 0  -0.9989930665413147 -0.0448648303505148 0  -0.9959742939952391 -0.08963930890343337 0  -0.9909497617679348 -0.1342332658176554 0  -0.9839295885986297 -0.1785568947986365 0  -0.9749279121818236 -0.2225209339563143 0  -0.9639628606958534 -0.266036845566675 0  -0.9510565162951536 -0.3090169943749473 0  -0.9362348706397372 -0.3513748240813426 0  -0.9195277725514507 -0.3930250316539235 0  -0.9009688679024191 -0.433883739117558 0  -0.8805955318567381 -0.4738686624729985 0  -0.8584487936018662 -0.512899277405906 0  -0.8345732537213028 -0.5508969814521024 0  -0.8090169943749476 -0.587785252292473 0  -0.7818314824680299 -0.6234898018587334 0  -0.7530714660036111 -0.6579387259397125 0  -0.7227948638273917 -0.6910626489868645 0  -0.6910626489868648 -0.7227948638273914 0  -0.6579387259397127 -0.7530714660036109 0  -0.6234898018587337 -0.7818314824680297 0  -0.5877852522924732 -0.8090169943749473 0  -0.5508969814521026 -0.8345732537213025 0  -0.5128992774059062 -0.858448793601866 0  -0.4738686624729988 -0.8805955318567379 0  -0.4338837391175583 -0.900968867902419 0  -0.3930250316539238 -0.9195277725514506 0  -0.3513748240813429 -0.9362348706397372 0  -0.3090169943749476 -0.9510565162951535 0  -0.2660368455666753 -0.9639628606958532 0  -0.2225209339563146 -0.9749279121818236 0  -0.1785568947986368 -0.9839295885986297 0  -0.1342332658176557 -0.9909497617679347 0  -0.08963930890343368 -0.9959742939952391 0  -0.0448648303505151 -0.9989930665413146 0  -1.83697019872103e-16 -1 0  0.04486483035051474 -0.9989930665413147 0  0.08963930890343332 -0.9959742939952391 0  0.1342332658176553 -0.9909497617679348 0  0.1785568947986365 -0.9839295885986297 0  0.2225209339563142 -0.9749279121818236 0  0.2660368455666749 -0.9639628606958534 0  0.3090169943749472 -0.9510565162951536 0  0.3513748240813425 -0.9362348706397373 0  0.3930250316539234 -0.9195277725514507 0  0.433883739117558 -0.9009688679024193 0  0.4738686624729985 -0.8805955318567381 0  0.512899277405906 -0.8584487936018662 0  0.5508969814521023 -0.8345732537213028 0  0.5877852522924729 -0.8090169943749476 0  0.6234898018587334 -0.7818314824680299 0  0.6579387259397125 -0.7530714660036111 0  0.6910626489868645 -0.7227948638273917 0  0.7227948638273913 -0.6910626489868649 0  0.7530714660036107 -0.6579387259397128 0  0.7818314824680297 -0.6234898018587337 0  0.8090169943749473 -0.5877852522924734 0  0.8345732537213025 -0.5508969814521028 0  0.858448793601866 -0.5128992774059064 0  0.8805955318567379 -0.4738686624729989 0  0.900968867902419 -0.4338837391175583 0  0.9195277725514506 -0.3930250316539238 0  0.9362348706397371 -0.3513748240813429 0  0.9510565162951535 -0.3090169943749476 0  0.9639628606958532 -0.2660368455666753 0  0.9749279121818235 -0.2225209339563146 0  0.9839295885986297 -0.1785568947986369 0  0.9909497617679347 -0.1342332658176557 0  0.995974293995239 -0.08963930890343375 0  0.9989930665413146 -0.04486483035051517 0  1.110223024625157e-16 0 0  -0.4899610542846192 0.1003199649533807 0  -0.3205185023516842 -0.3839190275750558 0  -0.1438358765637412 0.478996002798649 0  0.1721255948073747 -0.4694542076865124 0  0.3691524384285553 0.3374202235880281 0  0.5063497186554287 -0.1275889790538475 0  -0.620419087192033 -0.217094027998058 0  0.1890404316644947 0.6295342531909746 0  -0.4851691940682792 0.4434642193816241 0  -0.1132611161228881 -0.6516814710878455 0  0.4978473993890909 -0.4550526105954377 0  0.6531370237169037 0.1645761476072151 0  0.1035611797444527 0.3752455073313535 0  0.2227299911849749 -0.1846180162366383 0  0.3190946383873522 0.06990697990446423 0  -0.0574451803857928 0.7312693260069703 0  0.1358224598988247 -0.7271859104324465 0  -0.3766131516032699 -0.1317826413894497 0  -0.2945123756038103 0.2691961945279464 0  -0.5667655915098295 -0.4736188654649421 0  -0.7019692838278146 0.2456296759772705 0  0.4766214015293642 0.5709000374519329 0  -0.3350126323285844 0.6582587649428292 0  -0.04949723570558723 -0.2844302504952564 0  0.7492871137303249 -0.0844243819332649 0  -0.3713457201285446 -0.642450013377681 0  -0.7487981508960733 -0.001171455524147826 0  0.3695680510473159 -0.6612712966543841 0  0.6926953624850013 -0.3166360336417581 0  0.5884220365497188 0.3779655891580419 0  -0.06845818604231314 0.2208065473193154 0  0.1317444839033982 0.1618612134044336 0  -0.2825920523475279 0.05786097596879516 0  -0.1704733480688838 -0.1168557575042902 0  0.3911495299981792 -0.2884400960960172 0  -0.13957047731162 -0.4579524139530555 0  0.3579328007710149 0.723333385646852 0  0.1165672574326952 0.803407390516797 0  -0.7262612712438286 -0.3700486006809072 0  -0.5190843984496096 0.6270556383151583 0  -0.670015601539698 0.4641879949632437 0  0.02809211629932265 0.5421257730418024 0  -0.2357981703815286 -0.7852448483527983 0  -0.7979603614177327 -0.2010684396331413 0  -0.02679550966417271 -0.815044205116444 0  0.7629660940679213 0.3060476793402873 0  0.815148964084675 0.08407194487360127 0  0.5032032282034641 0.05694828092665236 0  -0.4824911466021494 -0.3221190580080633 0  -0.3170631563409184 0.4858285180725743 0  0.2520933858159525 0.4668276670139742 0  -0.5277826785386605 0.2724537128161357 0  -0.5812465725885639 -0.04767773687460564 0  0.01361715085062551 -0.5357997777730745 0  0.6611258380504123 -0.5033824697588201 0  0.501458920346079 0.2350842994734907 0  0.5370849029926252 -0.6224682357167484 0  0.1715268019394838 -0.01972758366967225 0  0.3365549676023893 -0.497727602719384 0  0.6412114594554967 0.535321570211142 0  -0.2394256974292095 0.7973250817229011 0  -0.5361066104207856 -0.6421517854325692 0  -0.2080402385721686 -0.2714312608293673 0  0.5443581947125409 -0.2764885746113011 0  0.2806816802712789 -0.7934737183007632 0  -0.2395533396896795 -0.5701815787092087 0  -0.8332775736762457 0.1319782021417001 0  0.2258913345803864 0.2828492515450528 0  0.1151782297556024 -0.3124235394548162 0  0.05875224909309842 -0.1557829680432588 0  0.3625668326560102 -0.1462911623068514 0  -0.1421752856425022 0.02463619924044762 0  -0.1797812616639223 0.6322343133179371 0  0.2739359764382562 -0.369628366464327 0  0.6149253203496368 -0.03344223352657319 0  0.8156962859799798 -0.2236105505327355 0  0.6396953007992249 -0.1728517248202992 0  -0.6340781346827002 0.08706043190412155 0  0.3347093146287197 0.5828272685502391 0  0.2286144750093404 -0.6088336365977857 0  -0.00948344842152299 0.8615220101637389 0  -0.7853982890321684 0.3567448131009457 0  0.3679734017087637 0.1992007509666632 0  -0.197830130240758 0.1686457473190219 0  -0.1625554145468203 0.3334330050939251 0  -0.02875266595970485 0.349601178565512 0  -0.7002202864415897 -0.5045409789488645 0  -0.4436886142535224 0.7408195564132417 0  0.06569962662462754 0.6801643557774218 0  -0.3722626605271018 -0.7790518771403507 0  0.1019243345894055 -0.8588683852242488 0  -0.4180574472219184 -0.4990046721777389 0  0.4947534484007468 0.70744182646636 0  -0.8600766960781494 -0.07979777600064186 0  0.0109
[...]
<PointData  Scalars="f_14"> 
<DataArray  type="Float64"  Name="f_14"  format="ascii">0.0000000000000000e+00  0.0000000000000000e+00  0.0000000000000000e+00  0.0000000000000000e+00  0.0000000000000000e+00  0.0000000000000000e+00  0.0000000000000000e+00  0.0000000000000000e+00  0.0000000000000000e+00  0.0000000000000000e+00  0.0000000000000000e+00  0.0000000000000000e+00  0.0000000000000000e+00  0.0000000000000000e+00  0.0000000000000000e+00  0.0000000000000000e+00  0.0000000000000000e+00  0.0000000000000000e+00  0.0000000000000000e+00  0.0000000000000000e+00  0.0000000000000000e+00  0.0000000000000000e+00  0.0000000000000000e+00  0.0000000000000000e+00  0.0000000000000000e+00  0.0000000000000000e+00  0.0000000000000000e+00  0.0000000000000000e+00  0.0000000000000000e+00  0.0000000000000000e+00  0.0000000000000000e+00  0.0000000000000000e+00  0.0000000000000000e+00  0.0000000000000000e+00  0.0000000000000000e+00  0.0000000000000000e+00  0.0000000000000000e+00  0.0000000000000000e+00  0.0000000000000000e+00  0.0000000000000000e+00  0.0000000000000000e+00  0.0000000000000000e+00  0.0000000000000000e+00  0.0000000000000000e+00  0.0000000000000000e+00  0.0000000000000000e+00  0.0000000000000000e+00  0.0000000000000000e+00  0.0000000000000000e+00  0.0000000000000000e+00  0.0000000000000000e+00  0.0000000000000000e+00  0.0000000000000000e+00  0.0000000000000000e+00  0.0000000000000000e+00  0.0000000000000000e+00  0.0000000000000000e+00  0.0000000000000000e+00  0.0000000000000000e+00  0.0000000000000000e+00  0.0000000000000000e+00  0.0000000000000000e+00  0.0000000000000000e+00  0.0000000000000000e+00  0.0000000000000000e+00  0.0000000000000000e+00  0.0000000000000000e+00  0.0000000000000000e+00  0.0000000000000000e+00  0.0000000000000000e+00  0.0000000000000000e+00  0.0000000000000000e+00  0.0000000000000000e+00  0.0000000000000000e+00  0.0000000000000000e+00  0.0000000000000000e+00  0.0000000000000000e+00  0.0000000000000000e+00  0.0000000000000000e+00  0.0000000000000000e+00  0.0000000000000000e+00  0.0000000000000000e+00  0.0000000000000000e+00  0.0000000000000000e+00  0.0000000000000000e+00  0.0000000000000000e+00  0.0000000000000000e+00  0.0000000000000000e+00  0.0000000000000000e+00  0.0000000000000000e+00  0.0000000000000000e+00  0.0000000000000000e+00  0.0000000000000000e+00  0.0000000000000000e+00  0.0000000000000000e+00  0.0000000000000000e+00  0.0000000000000000e+00  0.0000000000000000e+00  0.0000000000000000e+00  0.0000000000000000e+00  0.0000000000000000e+00  0.0000000000000000e+00  0.0000000000000000e+00  0.0000000000000000e+00  0.0000000000000000e+00  0.0000000000000000e+00  0.0000000000000000e+00  0.0000000000000000e+00  0.0000000000000000e+00  0.0000000000000000e+00  0.0000000000000000e+00  0.0000000000000000e+00  0.0000000000000000e+00  0.0000000000000000e+00  0.0000000000000000e+00  0.0000000000000000e+00  0.0000000000000000e+00  0.0000000000000000e+00  0.0000000000000000e+00  0.0000000000000000e+00  0.0000000000000000e+00  0.0000000000000000e+00  0.0000000000000000e+00  0.0000000000000000e+00  0.0000000000000000e+00  0.0000000000000000e+00  0.0000000000000000e+00  0.0000000000000000e+00  0.0000000000000000e+00  0.0000000000000000e+00  0.0000000000000000e+00  0.0000000000000000e+00  0.0000000000000000e+00  0.0000000000000000e+00  0.0000000000000000e+00  0.0000000000000000e+00  0.0000000000000000e+00  0.0000000000000000e+00  0.0000000000000000e+00  0.0000000000000000e+00  -9.3394093172735476e-02  1.4610735607091002e-02  2.4290093354539448e-03  -2.6433558576219669e-02  3.2797580782197383e-02  1.7273530726767611e-01  4.3000548840226172e-01  9.1790526633795319e-03  -5.7270373311573194e-03  -1.0469085513268006e-02  -1.0007956627351626e-02  1.0535495911777635e-02  -1.4543079951452513e-03  6.0495600846702267e-02  6.0977611011741828e-01  9.1423180017387073e-01  -6.7054879923189878e-03  2.2046342998959995e-03  1.4223658503024541e-02  -1.7736519771815975e-02  2.3681491068586451e-03  -1.8929502591572171e-02  -2.2326321670216458e-02  -1.2726127079989576e-03  2.4600290829131653e-02  1.3401070524011129e-02  -4.5105275369238728e-03  -6.3676488029743338e-03  -2.1119082157604824e-03  7.1963543379190134e-03  -1.2046069741044460e-02  3.9419508276107046e-02  5.3572263739988812e-01  4.7970875767138878e-03  -8.6101609130134794e-03  3.2359773792367313e-01  8.1070592520354895e-03  9.3543093628088367e-03  5.1717287353518207e-03  -1.9854871373075731e-03  -8.7327111115341298e-03  3.8945953030308669e-04  -4.0162139368269808e-03  -8.5316931652056806e-03  -2.4083627550475621e-03  -5.2763107515383630e-03  -7.8897886192971309e-03  -9.8483322814944489e-03  5.6569624541215524e-01  -1.6752344675770536e-02  -6.9181631523998043e-03  3.8424928179618283e-02  1.0454690042766224e-02  7.7776590508849353e-03  -2.5836853837911782e-03  -1.1686610808789976e-02  5.4028325827464772e-02  1.6667682719149011e-02  1.0364251379489480e+00  -9.6504148370078029e-03  -7.6141813177913551e-03  -9.6722122790399347e-03  -9.2659768227337097e-03  -2.1813668392475186e-02  8.0873334952344719e-03  7.0628403072260509e-03  -8.2668199008688412e-03  -6.4602789342988499e-03  3.3722613655883971e-01  2.1526657642883507e-01  3.0134580091567509e-01  7.6671282929093654e-01  6.4353895184685664e-03  -2.1349913072753442e-03  1.8827557017885554e-01  1.5991812551682055e-02  -8.5531390618721875e-03  -9.6082335319403502e-03  5.9757826651190499e-03  -1.1439470297714245e-03  -1.2786617671633419e-03  2.4433430054415016e-03  -1.0151511125457820e-02  5.8694429928579672e-01  3.1218876652737808e-02  -1.9930348413819646e-02  1.2515964049957739e-02  -5.3716110889520177e-03  -4.5930058033657297e-03  1.1470624916014608e-02  7.5077408718590558e-04  5.2061773217134972e-03  -5.7389190107380002e-03  1.3732667407456779e-02  -2.3771122270007099e-02  1.3059162111519248e-02  8.9280454154758871e-03  3.1196394878625133e-02  -1.3849720399565505e-02  -1.3430453500130869e-02  1.1839586694959147e-02  5.3444082906346866e-03  -4.8809822179333509e-03  -9.5134511076390062e-03  3.7388841446456384e-03  8.4619096449819707e-03  -1.2848467580132094e-04  2.1380167400989334e-02  -8.3800285855930440e-03  8.7427011526139975e-01  1.6233994408336544e-01  -1.4469048651350655e-03  1.3260340207899318e-02  -2.1101358136956259e-02  -4.9469692227549593e-03  -3.9716688537586850e-04  3.1493278910914461e-02  -4.0834058011959666e-05  -3.8491911042326833e-03  3.5605013190208673e-02  7.2005766288717787e-01  -6.8231632813978314e-03  2.3931419890259129e-02  1.3105625754998814e-03  9.0201278409146779e-01  -5.8793686599157343e-03  -2.0920611224741339e-02  -1.1754378733535959e-02  -1.2767874615773536e-04  1.6666771237398615e-02  -2.1145376954027243e-02  -2.0280143835313708e-02  8.5293677006645016e-03  -1.9333279518886932e-03  -8.4967023767241016e-03  -1.0845018878095272e-03  2.7238196315665465e-02  3.1209534332868469e-02  3.4114728616821727e-03  -6.6871807860138122e-03  1.4785570253904375e-02  2.8929818913576596e-02  -2.1112303021458122e-02  -9.6778356873520165e-03  -1.1069206797932368e-02  5.6810502380646609e-03  8.0636291827529183e-01  -2.2421783283248058e-02  -1.3646019311898091e-04  -1.5219765410390936e-02  -6.7546301467078778e-03  -6.9357703506505476e-03  -1.2359971213823713e-02  -8.3270908907506318e-03  -2.0041727271201534e-03  9.2842898257380313e-01  1.2321992384111713e-02  -9.8233332537133785e-03  3.4137312462819208e-03  -1.7937418241082068e-02  4.9714108468467348e-02  3.2972351138591788e-02  -9.5816871761260000e-04  -1.5709492343581280e-02  5.2640292475530803e-01  4.0700989010834127e-01  3.2888374910672587e-03  7.6359678995418834e-01  2.0773180688192885e-01  5.9144741988398613e-04  1.1670231646248638e-02  -2.8909301343496275e-02  2.1613512468931541e-02  1.7951558891339426e-03  -1.5085880907780397e-02  5.7951456845373285e-03  1.1788144940137574e-02  -1.1868329348308012e-03  6.1554057105874952e-03  -2.5897019409010106e-03  -1.6408595575571880e-02  3.9708974351897042e-01  -5.3907156581619437e-04  -2.0209755183703805e-04  -3.6734462600247937e-03  6.5138040702914478e-03  9.3988510090951081e-03  -2.6420911701808291e-03  -2.1609512159394152e-02  -9.4653650839179645e-03  -6.3801543847409143e-03  -3.0411959168569586e-05  -1.3483948540978454e-02  5.3048959483367221e-03  -3.0431474414311663e-03  -6.2100618320837363e-03  -1.5080861142581763e-02  1.8977203960061184e-01  1.3871005214511694e-02  2.4316692755204528e-03  4.7653656745744449e-01  3.4343820283426106e-02  1.3444352834963910e-02  2.6824472952774337e-02  3.9874510592689287e-03  3.1290734856994039e-02  -1.0065382148917381e-02  -5.6059156632604157e-03  -1.3379691815162820e-02  2.0223573422171015e-02  -1.1216034827307236e-02  -2.0815577844251892e-02  1.0641163576197231e-02  2.4171361643531541e-01  7.6402700184386663e-01  7.4110990812877398e-01  4.6130439807219109e-01  1.7372694765685359e-01  -6.4870816031519238e-03  -8.4401726165254654e-03  -1.3439381184015293e-02  8.2160842652903437e-03  -1.7131503072661152e-03  1.9155622633127482e-02  -8.0768039722125887e-03  5.9150322337502594e-02  -1.3625782496684863e-02  8.4979109731919498e-03  -1.2820014187122442e-02  7.5625796813646269e-04  -1.3247143841727997e-02  -8.1691240110798296e-03  -2.0681061365721352e-03  -2.6715576061088958e-02  -1.1155705638112115e-02  2.3296373344260104e-04  -2.0222259914367383e-02  -1.6660235687984293e-02  -1.7845066494362304e-02  -9.8340870772024511e-03  7.4319119656569066e-02  3.1925858958236825e-03  9.3179363527294157e-03  1.7825828193561666e-01  8.3578033421456473e-03  -6.0861198295320924e-03  -1.1847242895489796e-02  6.6001239206109868e-02  -1.3031039143553304e-02  2.1750350478994079e-01  1.4328444056429785e-02  -3.5510023666058023e-02  1.0530158040878847e-02  4.5967456097003402e-04  1.0879630710715649e-02  -6.0716302543992158e-03  1.3495433835530150e-02  -1.7810255848917773e-02  2.6777309994472039e-02  5.3650691125873273e-01  1.2216244426795505e-02  1.4866102666122880e-02  -5.7958193532738813e-03  -5.2637272093139205e-03  -1.2056367711975512e-02  1.7784158311393811e-02  1.3572985886376782e-01  -1.0709475806909790e-02  1.0396447659088421e-02  8.5593150396284668e-03  -1.4786527336199567e-02  4.2595187869203235e-03  1.1415070708599288e-02  -1.2434148910719492e-02  1.0789531937443443e-03  3.7526466441523014e-02  9.9961093279309610e-01  9.1206197971128067e-01  7.8211262750125451e-03  -3.3503449088491694e-03  -5.3396146341728882e-03  -3.3561808560326131e-03  1.0903045625275463e-03  2.3491810393377272e-03  -4.5171135742432822e-05  4.2639328641714310e-04  -7.5317194240603208e-03  7.3835490559192290e-03  5.8572015773418777e-04  -5.3914256912250269e-03  -1.6654940734729805e-02  -7.3946663688940371e-03  5.6182508652885821e-01  -7.0628987535560194e-03  -5.2716287382622814e-04  4.9344580295352797e-03  2.4770749872327059e-03  7.1403551018051400e-03  5.1098082124566446e-01  -4.1072458352619710e-05  -1.0782812930179932e-02  1.2743869467124278e-02  8.4329150552493268e-03  1.9346749670094351e-02  3.7158481028450624e-02  4.5366635505676442e-03  8.7465107372598472e-01  1.2011619002104471e-02  -9.9768287460943496e-04  1.2888310002439313e-02  1.1408103859984335e-02  4.1919141236951112e-04  1.7432268452557756e-02  2.4720734027623995e-02  7.9275082444723987e-03  5.6051991200090495e-03  -8.6129015600946348e-03  9.7820362389109631e-03  8.5813577839184696e-03  1.5417747850577975e-02  6.3091212363917265e-02  -6.0781198025111043e-03  1.4885983696806909e-02  3.8295925878813336e-03  -2.7451341208061166e-03  4.9533613158243978e-02  4.7154156397234866e-03  1.4348190467988306e-02  -1.8536604181881515e-03  1.3880173789079006e-02  -7.1344286129032342e-03  -1.9631871385044047e-02  -5.9637187238661070e-04  6.8992397356374757e-01  5.9830472709336402e-01  7.9590977736830260e-01  1.7512529281808237e-03  -9.8472732030392817e-03  8.8107491050838354e-03  1.0322348000826834e-03  -2.2838731002616037e-02  -7.8819014030774342e-04  3.3488232993904188e-01  -7.9487809347263527e-03  4.4176344833641006e-03  -3.0438442049010462e-03  1.0819110010143348e-01  -1.5084070711332428e-02  3.7084352433470295e-02  4.4435110038724907e-03  -2.7577703424766550e-02  4.7221776982226673e-03  1.3500070508524562e-03  5.5033625765579840e-03  -2.2523052074591463e-02  -5.4150283109170323e-03  -2.3713909201993899e-02  2.7267937419541625e-03  -5.5502712927094572e-03  8.3443278083773151e-03  -1.0865312225916746e-02  5.1256977439394127e-02  -2.1265991585594997e-04  7.5542631341489095e-04  -1.9416245961797852e-02  -1.1377778598090310e-02  -7.8659862103058354e-03  1.3838036208203027e-02  2.9948965936932224e-02  6.2797140744331780e-03  4.7256210394868731e-03  -1.2351665239530810e-02  7.3008544255720953e-02  1.3456147334764039e-02  7.4884149622024676e-01  3.6314082963458277e-01  2.5183518983906339e-03  -3.6206872756603206e-03  3.7475103178565483e-04  2.8979729163728010e-02  -2.0487737072001057e-02  5.5174997879482701e-01  -3.1805115761819130e-02  2.9186298423608870e-03  -1.7835433669976491e-03  2.8648155756333536e-03  -1.1934789895984416e-02  -1.1021918167830628e-02  2.4040425553147711e-03  -5.1808670263491612e-03  -2.7134489728599696e-02  7.2457687366466964e-03  1.5936673817747812e-02  -5.2566536755081225e-03  -2.3583049434585876e-02  -1.3321614924346114e-02  4.2647460925389026e-03  -2.0715006181816075e-03  1.0982900391226747e-03  8.0473855010579597e-03  5.6263073440718653e-03  9.9585558032119811e-02  3.2279342375841330e-01  -7.7819080489802085e-03  -1.4342252034062520e-02  2.5609487184571220e-02  -1.8382591564280133e-02  -3.4660703995076231e-02  4.7501464274559233e-03  -1.1340703076638111e-03  1.4252828184432804e-02  -1.2180833259009807e-02  -3.6411974755915795e-02  -7.0729955135766407e-03  -9.7369302966108240e-03  -1.6926682777585887e-03  -1.3716111699293116e-02  4.0141531264099419e-03  1.4750983122974626e-02  -1.0455605004505762e-02  -3.4721921223850138e-03  1.3754581153719039e-02  -8.4808965943140770e-03  9.5674533699837558e-05  -3.6083455164438109e-02  3.2555502945630335e-03  1.2081204452410323e-02  9.7375408080362068e-03  9.7755951138589221e-03  1.1667887180165098e-02  2.7162220490965342e-02  3.2116391304067801e-03  -9.3547225910961731e-03  -1.3104356232947128e-02  -9.2356410873739078e-03  1.9377326672873356e-04  1.1565734438207086e-02  2.3138454118821195e-02  -2.3266929162626699e-02  1.2622735715046206e-02  1.5865665602972989e-02  7.4959505110090599e-04  8.7090313051500523e-01  1.9706256140623094e-03  2.8627287674085636e-02  -6.1958098561828000e-03  1.7706877809924337e-01  -1.0615263609831109e-02  -1.6452416838045252e-02  3.4377520179828858e-01  8.3188822078407698e-01  -1.1833378094004735e-03  -1.3740010096435140e-03  2.1809897241100253e-02  2.7496038448266502e-03  2.6802695021183202e-02  -6.0921688468256819e-03  -5.3508901220547427e-03  1.7621734262970249e-03  -1.3159872258799670e-02  -4.8893745278365004e-04  1.1567541809201448e-02  7.8815797239325935e-01  -7.1819001304078761e-03  -7.5690612302080820e-03  -1.5769705110487312e-02  8.4870910283715796e-04  -1.8672914056799903e-03  -1.2181229503179644e-02  -8.5426717623152456e-03  -1.6315947776666832e-02  7.4102774761519996e-01  6.8782665133823062e-01  -2.1691953697006754e-02  1.1923175697474551e-02  1.0029677230955195e-02  -1.6098052135207954e-02  2.8606789970257360e-03  -1.1115227226072472e-02  4.8909090043334031e-03  -9.0747272535998662e-03  -1.0009687193450344e-02  5.8190884591964483e-02  6.2553821567911038e-03  1.2398216205972448e-01  1.1645073109605945e-02  -1.3883651715616077e-03  3.9853738605137804e-03  -1.8593020166756656e-03  -2.3171818318073324e-03  7.6287768885752163e-03  -1.3937229475610951e-02  7.8950043372983247e-01  4.7259376157140105e-02  1.4364700974369560e-02  5.7512138008016807e-02  9.0695870234130255e-02  5.0374579564590339e-03  2.1610935429296499e-02  3.9481673312221971e-03  -1.2908008577839730e-02  9.6306424234576787e-03  2.9223205197310281e-02  4.4122716182684344e-03  8.4878308633864441e-01  6.3154876832122956e-03  -1.7911041156632157e-03  -1.1536829129308108e-02  6.9752575731475064e-01  9.8111890527100321e-01  -1.2529332485124087e-02  1.2390534206299126e-03  -5.1233244743861053e-03  4.3497658479133200e-02  1.0683751545812937e-02  1.9203260986095233e-03  1.4218285101054023e-01  -1.8602514326189118e-02  1.4568099576352503e-03  -3.4373155042562768e-02  -4.5159417556166846e-03  8.6192559523132935e-03  9.9753276827463300e-01  7.7057239631049143e-02  1.8343392411670163e-02  -4.9344910176842040e-03  -2.5903413782726679e-02  4.7989796815647544e-03  7.4993351949868992e-01  6.0196029752013569e-03  5.0196074958687937e-03  2.8017031519362392e-03  2.1891801814442134e-05  -3.0206213610995770e-02  -7.9283983187242967e-03  1.0484915149078712e-02  -1.0121880545747629e-02  -4.1107507703331929e-03  8.6000774458682792e-03  3.8996980374967250e-03  1.7498915388224590e-03  -9.6801541710511210e-03  6.8784396095285319e-03  -3.1765006285454471e-02  3.7947948723622678e-02  -1.4269880193448855e-02  -7.3163305396846462e-03  -1.1190601984671714e-03  8.8604998720199268e-01  8.2352389471680554e-01  2.7143006979591927e-01  1.5127867007497627e-02  -5.3444957779035848e-03  6.0463540883493767e-03  3.1262973775991409e-02  1.7271464845831138e-02  -8.5135678280626149e-04  1.1157212162276614e-02  1.4463297009286752e-02  -4.7135881735152416e-03  6.5908837678721396e-03  6.0523214374891602e-04  1.5095287519630666e-04  -1.2121779651645563e-02  1.3620785390723885e-02  -2.8483308579030562e-02  3.0852504307581979e-01  -2.2188293831808249e-02  1.5092228002463756e-02  1.0611189695435083e-02  -1.0943728226255885e-02  4.3348924193602734e-01  -1.2592607839705382e-02  1.0082432866065310e-02  2.3406029235860444e-02  3.2486807870944095e-03  -6.3923228408957694e-03  1.8234440446334464e-02  3.8938077312661418e-03  1.9247697028575299e-02  1.9084593858895388e-01  -4.9969723677491563e-03  6.7999577965277103e-01  2.7675011393958730e-02  2.1400086189182044e-02  -2.4237782662390604e-03  1.6879931322547424e-02  5.8449987230742051e-01  2.4134223186158287e-03  -9.4312617751945353e-04  -3.1174091799016378e-04  7.4336700604072806e-03  -2.2462310799316976e-02  1.2630900208223518e-03  -7.1438450551673839e-03  -1.2480841693878971e-02  -9.2448009572389037e-03  5.3079781551374624e-03  -9.1341103736720837e-03  -1.6626718470219948e-02  2.1831471719429150e-02  4.6367196999564460e-04  -7.2789422930474640e-03  3.5795323376648642e-03  3.2767009942709108e-03  9.2101017031696823e-03  -5.9219712680722708e-04  9.1867720712696822e-03  2.2493297317498637e-02  4.7864805096586294e-01  3.2377243935611416e-01  2.3404775533598121e-01  2.2348429839004391e-01  5.2031341583952084e-01  6.4386209554561513e-01  2.3536412080825808e-01  3.4468266801368384e-03  -8.4116642198867123e-03  2.6006205281076753e-02  5.8531244498291402e-01  1.0178826248885265e-03  -1.8878515948248298e-04  9.1562242885630230e-01  1.6582985763561334e-02  -3.0048877912084875e-03  -2.3574978788513624e-03  -1.5393994528259914e-02  1.1665805461612725e-02  -2.3487920914072495e-03  1.4963574247450756e-02  -1.9867447604790733e-03  2.8043349256533911e-03  -4.9163322551550436e-03  1.6622979941127262e-03  1.5488624227942809e-03  3.5036039174400985e-02  6.4414866731046811e-03  1.7237844290931865e-03  -6.1364471443090939e-03  6.6298132867013866e-03  1.1572862333177626e-02  -8.6788805470460733e-03  -1.1709560939515919e-02  2.1596816641102273e-02  4.2691650918457264e-03  1.4022611673000273e-02  -1.4186945983457679e-02  -1.2262741961564525e-02  -1.2312099378810051e-02  1.8071414149629657e-02  -2.7588955362182394e-03  -5.5046486544407030e-03  1.4890249824129032e-02  4.4669324004368138e-03  -6.2819824641023782e-03  3.3437851895092957e-04  4.0934514166521225e-04  4.3886404239281127e-02  -1.1919244984206491e-02  -5.5945279401474349e-03  7.9566659291013429e-04  1.2733294093535591e-01  1.1091028670531142e-02  -3.6109493022688948e-03  4.4731764891380527e-01  -4.7645097143066998e-03  7.0028366508895191e-04  1.1665836944343278e-02  -1.3315593769318944e-02  8.4438172859390703e-03  -1.3491134897245032e-02  4.0223767897713293e-04  1.6592360896072370e-02  -4.9874934206760677e-03  5.9096837689451912e-03  -2.2135019724164600e-03  -1.5711683453263549e-02  3.752319432414